
                           ***********************       
                           *  WELCOME TO SIESTA  *       
                           ***********************       

reinit: Reading from standard input
reinit: Dumped input in INPUT_TMP.78836
************************** Dump of input data file ****************************
# Created by GDIS version 0.90.0
#ZrO2 pure without variable cell
SystemLabel     ZrO2-G
#----------------------------------------------------------
#                       Crystal flags
#----------------------------------------------------------
NumberOfAtoms    12
NumberOfSpecies  3
%block ChemicalSpeciesLabel
    1    8  O
    2   40  Zr
#    3   39  Y
    3   -8 VO
%endblock ChemicalSpeciesLabel
LatticeConstant 1.0 Ang
%block LatticeParameters
  5.177213    5.177213    5.177213  90.000000  90.000000  90.000000
%endblock LatticeParameters
AtomicCoordinatesFormat Fractional
%block AtomicCoordinatesAndAtomicSpecies
    0.25000000    0.25000000    0.25000000   3       1  VO
    0.75000000    0.75000000    0.75000000   1       2  O
    0.75000000    0.75000000    0.25000000   1       3  O
    0.25000000    0.25000000    0.75000000   1       4  O
    0.75000000    0.25000000    0.75000000   1       5  O
    0.25000000    0.75000000    0.25000000   1       6  O
    0.25000000    0.75000000    0.75000000   1       7  O
    0.75000000    0.25000000    0.25000000   1       8  O
   -0.00000000   -0.00000000   -0.00000000   2       9  Zr
   -0.00000000    0.50000000    0.50000000   2      10  Zr
    0.50000000   -0.00000000    0.50000000   2      11  Zr
    0.50000000    0.50000000   -0.00000000   2      12  Zr
%endblock AtomicCoordinatesAndAtomicSpecies
#%block Geometry.Constraints
#atom 1
#%endblock Geometry.Constraints
#----------------------------------------------------------
#                       Basis flags
#----------------------------------------------------------
%block PAO.Basis
 Zr   4
   n=5  0  2
        5.6054862       -0.6003580
        1.000   1.000
   n=4  1  2
        5.5279442       -0.4575023
        1.000           1.000
   n=5  1  1
        4.7571701
        1.000
   n=4  2  2
        6.0921820       -0.5609145
        1.000           1.000
O     3   -0.4158308
 n=2   0   2   E  25.2217485   -0.7787941
   4.1893036           -0.5955594
   1.00000             1.00000
 n=2   1   2   E  13.2644853   -0.7950761
   6.0475603           -0.6742187
   1.00000             1.00000
 n=3   2   1   E  45.9587470   -0.7957318
   3.2675257
   1.00000
VO     3   -0.4158308
 n=2   0   2   E  25.2217485   -0.7787941
   4.1893036           -0.5955594
   1.00000             1.00000
 n=2   1   2   E  13.2644853   -0.7950761
   6.0475603           -0.6742187
   1.00000             1.00000
 n=3   2   1   E  45.9587470   -0.7957318
   3.2675257
   1.00000
%endblock PAO.Basis
#Y    4      0.18480
3 n=5   0   2   E    54.30244     1.81665
#     3.73233     2.17478
#     1.00000     1.00000
# n=4   1   2   E    34.29848     2.87971
#     4.91942     2.39915
#     1.00000     1.00000
# n=5   1   1   E    42.47320     1.98078
#     3.52352
#     1.00000
# n=4   2   2   E    12.30267     2.52239
#     5.23907     3.07050
#     1.00000     1.00000
#%block kgrid_Monkhorst_Pack
#3    0    0     0.0
#0    3    0     0.0
#0    0    3     0.0
#%endblock kgrid_Monkhorst_Pack
MeshCutoff 		600  Ry
XC.functional 		GGA
XC.authors 		revPBE
SpinPolarized           .true.
#----------------------------------------------------------
#                       DM flags
#----------------------------------------------------------
DM.MixingWeight 	0.20
DM.NumberPulay          4
DM.UseSaveDM            .true.
DM.Tolerance 		1.0d-4
MaxSCFIterations 	150
#----------------------------------------------------------
#                       MD flags
#----------------------------------------------------------
MD.MaxCGDispl           0.1 Bohr
MD.TypeOfRun            CG
MD.VariableCell         .true.
MD.NumCGsteps           0
MD.MaxForceTol          0.04000 eV/Ang
MD.UseSaveXV            .true.
#----------------------------------------------------------
#                       Electronic flags
#----------------------------------------------------------
ElectronicTemperature   5 K
NumberOfEigenStates     800
#COOP.Write             .true.
#WFS.Write.For.Bands    .true.
BandLinesScale ReciprocalLatticeVectors
%block BandLines
  1  0.000 0.000 0.000  \Gamma
 200  0.500 0.500 0.000  M
 200  0.000 0.500 0.000  X
 200  0.000 0.000 0.000  \Gamma
 200  0.500 0.500 0.500  R
 200  0.000 0.000 0.000  \Gamma
%endblock BandLines
UseNewDiagk            .false.
Diag.ParallelOverK     .false.
LongOutput
WriteMDHistory         .true.
WriteMDXmol            .true.
%block kgrid_Monkhorst_Pack
   9   0   0       0.00
   0   9   0       0.00
   0   0   9       0.00
%endblock kgrid_Monkhorst_Pack
SaveTotalPotential T
SaveRho T
************************** End of input data file *****************************

reinit: -----------------------------------------------------------------------
reinit: System Name: 
reinit: -----------------------------------------------------------------------
reinit: System Label: ZrO2-G
reinit: -----------------------------------------------------------------------
Siesta Version: siesta-4.1--736
Architecture  : unknown
Compiler flags: mpif90 -O2 -fPIC -ftree-vectorize
PP flags      : -DFC_HAVE_ABORT -DMPI -DFC_HAVE_FLUSH -DFC_HAVE_ABORT -DGRID_DP -DPHI_GRID_SP -DSIESTA__FLOOK
Libraries     :  /usr/lib/libscalapack-openmpi.so   libsiestaLAPACK.a libsiestaBLAS.a libfdict.a /usr/lib/libblacsF77init-openmpi.so /usr/lib/libblacsCinit-openmpi.so /usr/lib/libblacs-openmpi.so  -lflookall -ldl
PARALLEL version

* Running on 8 nodes in parallel
>> Start of run:  25-JUL-2019  10:34:14

initatom: Reading input for the pseudopotentials and atomic orbitals ----------
Species number:   1 Atomic number:    8 Label: O
Species number:   2 Atomic number:   40 Label: Zr
Species number:   3 Atomic number:   -8 Label: VO (floating PAOs)

Ground state valence configuration:   2s02  2p04
Reading pseudopotential information in formatted form from O.psf

Pseudopotential generated from a relativistic atomic calculation
There are spin-orbit pseudopotentials available
Spin-orbit interaction is not included in this calculation

Valence configuration for pseudopotential generation:
2s( 2.00) rc: 1.14
2p( 4.00) rc: 1.14
3d( 0.00) rc: 1.14
4f( 0.00) rc: 1.48
Ground state valence configuration:   5s02  4d02
Reading pseudopotential information in formatted form from Zr.psf

Pseudopotential generated from a relativistic atomic calculation
There are spin-orbit pseudopotentials available
Spin-orbit interaction is not included in this calculation

Valence configuration for pseudopotential generation:
5s( 2.00) rc: 3.00
4p( 6.00) rc: 1.49
4d( 2.00) rc: 1.40
4f( 0.00) rc: 1.19
Ground state valence configuration:   2s02  2p04
Reading pseudopotential information in formatted form from VO.psf

Pseudopotential generated from a relativistic atomic calculation
There are spin-orbit pseudopotentials available
Spin-orbit interaction is not included in this calculation

Valence configuration for pseudopotential generation:
2s( 2.00) rc: 1.14
2p( 4.00) rc: 1.14
3d( 0.00) rc: 1.14
4f( 0.00) rc: 1.48
Semicore shell(s) with  6 electrons included in the valence for
Zr
For O, standard SIESTA heuristics set lmxkb to 3
 (one more than the basis l, including polarization orbitals).
Use PS.lmax or PS.KBprojectors blocks to override.
For Zr, standard SIESTA heuristics set lmxkb to 3
 (one more than the basis l, including polarization orbitals).
Use PS.lmax or PS.KBprojectors blocks to override.

<basis_specs>
===============================================================================
O                    Z=   8    Mass=  16.000        Charge=-0.41583    
Lmxo=2 Lmxkb= 3    BasisType=split      Semic=F
L=0  Nsemic=0  Cnfigmx=2
          n=1  nzeta=2  polorb=0
            splnorm:   0.15000    
               vcte:    25.222    
               rinn:  -0.77879    
               qcoe:    0.0000    
               qyuk:    0.0000    
               qwid:   0.10000E-01
                rcs:    4.1893    -0.59556    
            lambdas:    1.0000      1.0000    
L=1  Nsemic=0  Cnfigmx=2
          n=1  nzeta=2  polorb=0
            splnorm:   0.15000    
               vcte:    13.264    
               rinn:  -0.79508    
               qcoe:    0.0000    
               qyuk:    0.0000    
               qwid:   0.10000E-01
                rcs:    6.0476    -0.67422    
            lambdas:    1.0000      1.0000    
L=2  Nsemic=0  Cnfigmx=3
          n=1  nzeta=1  polorb=0
            splnorm:   0.15000    
               vcte:    45.959    
               rinn:  -0.79573    
               qcoe:    0.0000    
               qyuk:    0.0000    
               qwid:   0.10000E-01
                rcs:    3.2675    
            lambdas:    1.0000    
-------------------------------------------------------------------------------
L=0  Nkbl=1  erefs: 0.17977+309
L=1  Nkbl=1  erefs: 0.17977+309
L=2  Nkbl=1  erefs: 0.17977+309
L=3  Nkbl=1  erefs: 0.17977+309
===============================================================================
</basis_specs>

atom: Called for O                     (Z =   8)

read_vps: Pseudopotential generation method:
read_vps: ATM3.3    Troullier-Martins                       
Total valence charge:    6.00000

read_vps: Pseudopotential includes a core correction:
read_vps: Pseudo-core for xc-correction

xc_check: Exchange-correlation functional:
xc_check: GGA revPBE
V l=0 = -2*Zval/r beyond r=  1.1278
V l=1 = -2*Zval/r beyond r=  1.1278
V l=2 = -2*Zval/r beyond r=  1.1278
V l=3 = -2*Zval/r beyond r=  1.4665
All V_l potentials equal beyond r=  1.4482
This should be close to max(r_c) in ps generation
All pots = -2*Zval/r beyond r=  1.4665

VLOCAL1: 99.0% of the norm of Vloc inside     20.696 Ry
VLOCAL1: 99.9% of the norm of Vloc inside     47.167 Ry
atom: Maximum radius for 4*pi*r*r*local-pseudopot. charge    1.74697
atom: Maximum radius for r*vlocal+2*Zval:    1.52250
GHOST: No ghost state for L =  0
GHOST: No ghost state for L =  1
GHOST: No ghost state for L =  2
GHOST: No ghost state for L =  3

KBgen: Kleinman-Bylander projectors: 
   l= 0   rc=  1.620715   el= -1.762453   Ekb= 12.304028   kbcos=  0.151877
   l= 1   rc=  1.600578   el= -0.659331   Ekb=-10.019323   kbcos= -0.441129
   l= 2   rc=  1.725262   el=  0.001944   Ekb= -2.779253   kbcos= -0.005180
   l= 3   rc=  2.271458   el=  0.003066   Ekb= -0.634310   kbcos= -0.000917

KBgen: Total number of  Kleinman-Bylander projectors:   16
atom: -------------------------------------------------------------------------

atom: SANKEY-TYPE ORBITALS:
atom: Selected multiple-zeta basis: split     

atom: basis set generated (by rescaling the valence charge)
atom: for an anion of charge  -0.4158

SPLIT: Orbitals with angular momentum L= 0

SPLIT: Basis orbitals for state 2s

   izeta = 1
                 lambda =    1.000000
                     rc =    4.243912
                 energy =   -1.754694
                kinetic =    1.459503
    potential(screened) =   -3.214196
       potential(ionic) =  -10.979225

   izeta = 2
                 rmatch =    2.573941
              splitnorm =    0.174700
                 energy =   -1.531239
                kinetic =    2.385766
    potential(screened) =   -3.917005
       potential(ionic) =  -12.378237

SPLIT: Orbitals with angular momentum L= 1

SPLIT: Basis orbitals for state 2p

   izeta = 1
                 lambda =    1.000000
                     rc =    6.022527
                 energy =   -0.637954
                kinetic =    3.936049
    potential(screened) =   -4.574003
       potential(ionic) =  -11.710564

   izeta = 2
                 rmatch =    4.036919
              splitnorm =    0.072287
                 energy =   -0.633996
                kinetic =    5.012517
    potential(screened) =   -5.646513
       potential(ionic) =  -13.458336

SPLIT: Orbitals with angular momentum L= 2

SPLIT: Basis orbitals for state 3d

   izeta = 1
                 lambda =    1.000000
                     rc =    3.305093
                 energy =    2.272910
                kinetic =    3.561671
    potential(screened) =   -1.288760
       potential(ionic) =   -7.031728
atom: Total number of Sankey-type orbitals: 13

atm_pop: Valence configuration (for local Pseudopot. screening):
 2s( 2.00)                                                            
 2p( 4.00)                                                            
 3d( 0.00)                                                            
Vna: chval, zval:    6.00000   6.00000

Vna:  Cut-off radius for the neutral-atom potential:   6.022527
comcore: Pseudo-core radius Rcore=  1.377587

atom: _________________________________________________________________________

<basis_specs>
===============================================================================
Zr                   Z=  40    Mass=  91.220        Charge= 0.17977+309
Lmxo=2 Lmxkb= 3    BasisType=split      Semic=T
L=0  Nsemic=0  Cnfigmx=5
          n=1  nzeta=2  polorb=0
            splnorm:   0.15000    
               vcte:    0.0000    
               rinn:    0.0000    
               qcoe:    0.0000    
               qyuk:    0.0000    
               qwid:   0.10000E-01
                rcs:    5.6055    -0.60036    
            lambdas:    1.0000      1.0000    
L=1  Nsemic=1  Cnfigmx=5
          n=1  nzeta=2  polorb=0
            splnorm:   0.15000    
               vcte:    0.0000    
               rinn:    0.0000    
               qcoe:    0.0000    
               qyuk:    0.0000    
               qwid:   0.10000E-01
                rcs:    5.5279    -0.45750    
            lambdas:    1.0000      1.0000    
          n=2  nzeta=1  polorb=0
            splnorm:   0.15000    
               vcte:    0.0000    
               rinn:    0.0000    
               qcoe:    0.0000    
               qyuk:    0.0000    
               qwid:   0.10000E-01
                rcs:    4.7572    
            lambdas:    1.0000    
L=2  Nsemic=0  Cnfigmx=4
          n=1  nzeta=2  polorb=0
            splnorm:   0.15000    
               vcte:    0.0000    
               rinn:    0.0000    
               qcoe:    0.0000    
               qyuk:    0.0000    
               qwid:   0.10000E-01
                rcs:    6.0922    -0.56091    
            lambdas:    1.0000      1.0000    
-------------------------------------------------------------------------------
L=0  Nkbl=1  erefs: 0.17977+309
L=1  Nkbl=2  erefs: 0.17977+309 0.17977+309
L=2  Nkbl=1  erefs: 0.17977+309
L=3  Nkbl=1  erefs: 0.17977+309
===============================================================================
</basis_specs>

atom: Called for Zr                    (Z =  40)

read_vps: Pseudopotential generation method:
read_vps: ATM3.3    Troullier-Martins                       
Total valence charge:   10.00000

read_vps: Pseudopotential includes a core correction:
read_vps: Pseudo-core for xc-correction

xc_check: Exchange-correlation functional:
xc_check: GGA revPBE
V l=0 = -2*Zval/r beyond r=  3.0759
V l=1 = -2*Zval/r beyond r=  3.0377
V l=2 = -2*Zval/r beyond r=  3.0377
V l=3 = -2*Zval/r beyond r=  3.0377
All V_l potentials equal beyond r=  2.9259
This should be close to max(r_c) in ps generation
All pots = -2*Zval/r beyond r=  3.0759

VLOCAL1: 99.0% of the norm of Vloc inside      5.070 Ry
VLOCAL1: 99.9% of the norm of Vloc inside     11.556 Ry
atom: Maximum radius for 4*pi*r*r*local-pseudopot. charge    3.52931
atom: Maximum radius for r*vlocal+2*Zval:    3.11460
GHOST: No ghost state for L =  0
KBgen: More than one KB projector for l=  1
KBgen: ghost states analysis will be not performed
GHOST: No ghost state for L =  2
GHOST: No ghost state for L =  3

KBgen: Kleinman-Bylander projectors: 
   l= 0   rc=  3.357183   el= -0.322240   Ekb=  2.666096   kbcos=  0.306011
   l= 1   rc=  3.114600   el= -2.383749   Ekb= -3.477289   kbcos= -0.809822
   l= 1   rc=  3.485470   el= -0.107615   Ekb= -1.237773   kbcos= -0.108616
   l= 2   rc=  3.233617   el= -0.263464   Ekb= -4.080270   kbcos= -0.506883
   l= 3   rc=  3.442172   el=  0.002958   Ekb= -5.741872   kbcos= -0.018992

KBgen: Total number of  Kleinman-Bylander projectors:   19
atom: -------------------------------------------------------------------------

atom: SANKEY-TYPE ORBITALS:
atom: Selected multiple-zeta basis: split     

SPLIT: Orbitals with angular momentum L= 0

SPLIT: Basis orbitals for state 5s

   izeta = 1
                 lambda =    1.000000
                     rc =    5.675222
                 energy =   -0.222985
                kinetic =    0.385078
    potential(screened) =   -0.608063
       potential(ionic) =   -6.529030

   izeta = 2
                 rmatch =    3.442172
              splitnorm =    1.238298
                 energy =    2.320254
                kinetic =    1.323090
    potential(screened) =    0.997164
       potential(ionic) =   -8.682572

SPLIT: Orbitals with angular momentum L= 1

SPLIT: Basis orbitals for state 4p

   izeta = 1
                 lambda =    1.000000
                     rc =    5.535098
                 energy =   -2.383834
                kinetic =    3.009651
    potential(screened) =   -5.393485
       potential(ionic) =  -14.886612

   izeta = 2
                 rmatch =    2.550007
              splitnorm =    0.147641
                 energy =   -2.016178
                kinetic =    4.366354
    potential(screened) =   -6.382532
       potential(ionic) =  -16.391777

SPLIT: Basis orbitals for state 5p

   izeta = 1
                 lambda =    1.000000
                     rc =    4.764095
                 energy =    0.380983
                kinetic =    1.958633
    potential(screened) =   -1.577650
       potential(ionic) =   -7.895920

SPLIT: Orbitals with angular momentum L= 2

SPLIT: Basis orbitals for state 4d

   izeta = 1
                 lambda =    1.000000
                     rc =    6.117236
                 energy =   -0.252733
                kinetic =    2.903865
    potential(screened) =   -3.156599
       potential(ionic) =  -10.999884

   izeta = 2
                 rmatch =    3.442172
              splitnorm =    0.260503
                 energy =    0.034284
                kinetic =    4.814854
    potential(screened) =   -4.780569
       potential(ionic) =  -13.872386
atom: Total number of Sankey-type orbitals: 21

atm_pop: Valence configuration (for local Pseudopot. screening):
 5s( 2.00)                                                            
 4p( 6.00) 5p( 0.00)                                                  
 4d( 2.00)                                                            
Vna: chval, zval:   10.00000  10.00000

Vna:  Cut-off radius for the neutral-atom potential:   6.117236
comcore: Pseudo-core radius Rcore=  4.100486

atom: _________________________________________________________________________

<basis_specs>
===============================================================================
VO                   Z=  -8    Mass= 0.10000E+41    Charge=-0.41583    
Lmxo=2 Lmxkb=-1    BasisType=split      Semic=F
L=0  Nsemic=0  Cnfigmx=2
          n=1  nzeta=2  polorb=0
            splnorm:   0.15000    
               vcte:    25.222    
               rinn:  -0.77879    
               qcoe:    0.0000    
               qyuk:    0.0000    
               qwid:   0.10000E-01
                rcs:    4.1893    -0.59556    
            lambdas:    1.0000      1.0000    
L=1  Nsemic=0  Cnfigmx=2
          n=1  nzeta=2  polorb=0
            splnorm:   0.15000    
               vcte:    13.264    
               rinn:  -0.79508    
               qcoe:    0.0000    
               qyuk:    0.0000    
               qwid:   0.10000E-01
                rcs:    6.0476    -0.67422    
            lambdas:    1.0000      1.0000    
L=2  Nsemic=0  Cnfigmx=3
          n=1  nzeta=1  polorb=0
            splnorm:   0.15000    
               vcte:    45.959    
               rinn:  -0.79573    
               qcoe:    0.0000    
               qyuk:    0.0000    
               qwid:   0.10000E-01
                rcs:    3.2675    
            lambdas:    1.0000    
===============================================================================
</basis_specs>

atom: Called for VO                    (Z =  -8) ( Floating basis ) 

read_vps: Pseudopotential generation method:
read_vps: ATM3.3    Troullier-Martins                       
Total valence charge:    6.00000

read_vps: Pseudopotential includes a core correction:
read_vps: Pseudo-core for xc-correction

xc_check: Exchange-correlation functional:
xc_check: GGA revPBE
atom: -------------------------------------------------------------------------

atom: SANKEY-TYPE ORBITALS:
atom: Selected multiple-zeta basis: split     

atom: basis set generated (by rescaling the valence charge)
atom: for an anion of charge  -0.4158

SPLIT: Orbitals with angular momentum L= 0

SPLIT: Basis orbitals for state 2s

   izeta = 1
                 lambda =    1.000000
                     rc =    4.243912
                 energy =   -1.754694
                kinetic =    1.459503
    potential(screened) =   -3.214196
       potential(ionic) =  -10.979225

   izeta = 2
                 rmatch =    2.573941
              splitnorm =    0.174700
                 energy =   -1.531239
                kinetic =    2.385766
    potential(screened) =   -3.917005
       potential(ionic) =  -12.378237

SPLIT: Orbitals with angular momentum L= 1

SPLIT: Basis orbitals for state 2p

   izeta = 1
                 lambda =    1.000000
                     rc =    6.022527
                 energy =   -0.637954
                kinetic =    3.936049
    potential(screened) =   -4.574003
       potential(ionic) =  -11.710564

   izeta = 2
                 rmatch =    4.036919
              splitnorm =    0.072287
                 energy =   -0.633996
                kinetic =    5.012517
    potential(screened) =   -5.646513
       potential(ionic) =  -13.458336

SPLIT: Orbitals with angular momentum L= 2

SPLIT: Basis orbitals for state 3d

   izeta = 1
                 lambda =    1.000000
                     rc =    3.305093
                 energy =    2.272910
                kinetic =    3.561671
    potential(screened) =   -1.288760
       potential(ionic) =   -7.031728
atom: Total number of Sankey-type orbitals: 13

atom: _________________________________________________________________________

prinput: Basis input ----------------------------------------------------------

PAO.BasisType split     

%block ChemicalSpeciesLabel
    1    8 O                       # Species index, atomic number, species label
    2   40 Zr                      # Species index, atomic number, species label
    3   -8 VO                      # Species index, atomic number, species label
%endblock ChemicalSpeciesLabel

%block PAO.Basis                 # Define Basis set
O                     3  -0.416            # Label, l-shells, ionic net charge
 n=2   0   2                         # n, l, Nzeta 
   4.244      2.574   
   1.000      1.000   
 n=2   1   2                         # n, l, Nzeta 
   6.023      4.037   
   1.000      1.000   
 n=3   2   1                         # n, l, Nzeta 
   3.305   
   1.000   
Zr                    4                    # Species label, number of l-shells
 n=5   0   2                         # n, l, Nzeta 
   5.675      3.442   
   1.000      1.000   
 n=4   1   2                         # n, l, Nzeta 
   5.535      2.550   
   1.000      1.000   
 n=5   1   1                         # n, l, Nzeta 
   4.764   
   1.000   
 n=4   2   2                         # n, l, Nzeta 
   6.117      3.442   
   1.000      1.000   
VO                    3  -0.416            # Label, l-shells, ionic net charge
 n=2   0   2                         # n, l, Nzeta 
   4.244      2.574   
   1.000      1.000   
 n=2   1   2                         # n, l, Nzeta 
   6.023      4.037   
   1.000      1.000   
 n=3   2   1                         # n, l, Nzeta 
   3.305   
   1.000   
%endblock PAO.Basis

prinput: ----------------------------------------------------------------------

coor:   Atomic-coordinates input format  =     Fractional

ioxv: Reading coordinates and velocities from file
! Info in XV file prevails over previous structure input

siesta: Atomic coordinates (Bohr) and species
siesta:      2.44588   2.44588   2.44588  3        1
siesta:      7.33764   7.33764   7.33764  1        2
siesta:      7.33764   7.33764   2.44588  1        3
siesta:      2.44588   2.44588   7.33764  1        4
siesta:      7.33764   2.44588   7.33764  1        5
siesta:      2.44588   7.33764   2.44588  1        6
siesta:      2.44588   7.33764   7.33764  1        7
siesta:      7.33764   2.44588   2.44588  1        8
siesta:      0.00000   0.00000   0.00000  2        9
siesta:      0.00000   4.89176   4.89176  2       10
siesta:      4.89176   0.00000   4.89176  2       11
siesta:      4.89176   4.89176   0.00000  2       12

siesta: System type = bulk      

initatomlists: Number of atoms, orbitals, and projectors:     12   188   188

siesta: ******************** Simulation parameters ****************************
siesta:
siesta: The following are some of the parameters of the simulation.
siesta: A complete list of the parameters used, including default values,
siesta: can be found in file out.fdf
siesta:
redata: Spin configuration                          = collinear
redata: Number of spin components                   = 2
redata: Time-Reversal Symmetry                      = T
redata: Spin-spiral                                 = F
redata: Long output                                 =   T
redata: Number of Atomic Species                    =        3
redata: Charge density info will appear in .RHO file
redata: Write Mulliken Pop.                         = Atomic and Orbital charges
redata: Mesh Cutoff                                 =   600.0000 Ry
redata: Net charge of the system                    =     0.0000 |e|
redata: Min. number of SCF Iter                     =        0
redata: Max. number of SCF Iter                     =      150
redata: SCF mix quantity                            = Hamiltonian
redata: Mix DM or H after convergence               =   F
redata: Recompute H after scf cycle                 =   F
redata: Mix DM in first SCF step                    =   T
redata: Write Pulay info on disk                    =   F
redata: New DM Mixing Weight                        =     0.2000
redata: New DM Occupancy tolerance                  = 0.000000000001
redata: No kicks to SCF
redata: DM Mixing Weight for Kicks                  =     0.5000
redata: Require Harris convergence for SCF          =   F
redata: Harris energy tolerance for SCF             =     0.000100 eV
redata: Require DM convergence for SCF              =   T
redata: DM tolerance for SCF                        =     0.0001
redata: Require EDM convergence for SCF             =   F
redata: EDM tolerance for SCF                       =     0.001000 eV
redata: Require H convergence for SCF               =   T
redata: Hamiltonian tolerance for SCF               =     0.001000 eV
redata: Require (free) Energy convergence for SCF   =   F
redata: (free) Energy tolerance for SCF             =     0.000100 eV
redata: Antiferro initial spin density              =   F
redata: Using Saved Data (generic)                  =   F
redata: Use continuation files for DM               =   T
redata: Neglect nonoverlap interactions             =   F
redata: Method of Calculation                       = Diagonalization
redata: Divide and Conquer                          =   T
redata: Electronic Temperature                      =     5.0000 K
redata: Fix the spin of the system                  =   F
redata: Dynamics option                             = Single-point calculation
mix.SCF: Pulay mixing                            = Pulay
mix.SCF:    Variant                              = stable
mix.SCF:    History steps                        = 4
mix.SCF:    Linear mixing weight                 =     0.200000
mix.SCF:    Mixing weight                        =     0.200000
mix.SCF:    SVD condition                        = 0.1000E-07
mix.SCF: Spin-component mixing                   all
redata: ***********************************************************************

%block SCF.Mixers
  Pulay
%endblock SCF.Mixers

%block SCF.Mixer.Pulay
  # Mixing method
  method pulay
  variant stable

  # Mixing options
  weight 0.2000
  weight.linear 0.2000
  history 4
%endblock SCF.Mixer.Pulay

DM_history_depth set to one: no extrapolation allowed by default for geometry relaxation
Size of DM history Fstack: 1
Total number of electrons:    82.000000
Total ionic charge:    82.000000

* ProcessorY, Blocksize:    2  24


* Orbital distribution balance (max,min):    24    20

 Kpoints in:          405 . Kpoints trimmed:          365

siesta: k-point coordinates (Bohr**-1) and weights:
siesta:    1   -0.285432   -0.285432    0.000000       0.002743
siesta:    2   -0.214074   -0.285432    0.000000       0.002743
siesta:    3   -0.142716   -0.285432    0.000000       0.002743
siesta:    4   -0.071358   -0.285432    0.000000       0.002743
siesta:    5    0.000000   -0.285432    0.000000       0.002743
siesta:    6    0.071358   -0.285432    0.000000       0.002743
siesta:    7    0.142716   -0.285432    0.000000       0.002743
siesta:    8    0.214074   -0.285432    0.000000       0.002743
siesta:    9    0.285432   -0.285432    0.000000       0.002743
siesta:   10   -0.285432   -0.214074    0.000000       0.002743
siesta:   11   -0.214074   -0.214074    0.000000       0.002743
siesta:   12   -0.142716   -0.214074    0.000000       0.002743
siesta:   13   -0.071358   -0.214074    0.000000       0.002743
siesta:   14    0.000000   -0.214074    0.000000       0.002743
siesta:   15    0.071358   -0.214074    0.000000       0.002743
siesta:   16    0.142716   -0.214074    0.000000       0.002743
siesta:   17    0.214074   -0.214074    0.000000       0.002743
siesta:   18    0.285432   -0.214074    0.000000       0.002743
siesta:   19   -0.285432   -0.142716    0.000000       0.002743
siesta:   20   -0.214074   -0.142716    0.000000       0.002743
siesta:   21   -0.142716   -0.142716    0.000000       0.002743
siesta:   22   -0.071358   -0.142716    0.000000       0.002743
siesta:   23    0.000000   -0.142716    0.000000       0.002743
siesta:   24    0.071358   -0.142716    0.000000       0.002743
siesta:   25    0.142716   -0.142716    0.000000       0.002743
siesta:   26    0.214074   -0.142716    0.000000       0.002743
siesta:   27    0.285432   -0.142716    0.000000       0.002743
siesta:   28   -0.285432   -0.071358    0.000000       0.002743
siesta:   29   -0.214074   -0.071358    0.000000       0.002743
siesta:   30   -0.142716   -0.071358    0.000000       0.002743
siesta:   31   -0.071358   -0.071358    0.000000       0.002743
siesta:   32    0.000000   -0.071358    0.000000       0.002743
siesta:   33    0.071358   -0.071358    0.000000       0.002743
siesta:   34    0.142716   -0.071358    0.000000       0.002743
siesta:   35    0.214074   -0.071358    0.000000       0.002743
siesta:   36    0.285432   -0.071358    0.000000       0.002743
siesta:   37   -0.285432    0.000000    0.000000       0.002743
siesta:   38   -0.214074    0.000000    0.000000       0.002743
siesta:   39   -0.142716    0.000000    0.000000       0.002743
siesta:   40   -0.071358    0.000000    0.000000       0.002743
siesta:   41    0.000000    0.000000    0.000000       0.001372
siesta:   42   -0.285432   -0.285432    0.071358       0.002743
siesta:   43   -0.214074   -0.285432    0.071358       0.002743
siesta:   44   -0.142716   -0.285432    0.071358       0.002743
siesta:   45   -0.071358   -0.285432    0.071358       0.002743
siesta:   46    0.000000   -0.285432    0.071358       0.002743
siesta:   47    0.071358   -0.285432    0.071358       0.002743
siesta:   48    0.142716   -0.285432    0.071358       0.002743
siesta:   49    0.214074   -0.285432    0.071358       0.002743
siesta:   50    0.285432   -0.285432    0.071358       0.002743
siesta:   51   -0.285432   -0.214074    0.071358       0.002743
siesta:   52   -0.214074   -0.214074    0.071358       0.002743
siesta:   53   -0.142716   -0.214074    0.071358       0.002743
siesta:   54   -0.071358   -0.214074    0.071358       0.002743
siesta:   55    0.000000   -0.214074    0.071358       0.002743
siesta:   56    0.071358   -0.214074    0.071358       0.002743
siesta:   57    0.142716   -0.214074    0.071358       0.002743
siesta:   58    0.214074   -0.214074    0.071358       0.002743
siesta:   59    0.285432   -0.214074    0.071358       0.002743
siesta:   60   -0.285432   -0.142716    0.071358       0.002743
siesta:   61   -0.214074   -0.142716    0.071358       0.002743
siesta:   62   -0.142716   -0.142716    0.071358       0.002743
siesta:   63   -0.071358   -0.142716    0.071358       0.002743
siesta:   64    0.000000   -0.142716    0.071358       0.002743
siesta:   65    0.071358   -0.142716    0.071358       0.002743
siesta:   66    0.142716   -0.142716    0.071358       0.002743
siesta:   67    0.214074   -0.142716    0.071358       0.002743
siesta:   68    0.285432   -0.142716    0.071358       0.002743
siesta:   69   -0.285432   -0.071358    0.071358       0.002743
siesta:   70   -0.214074   -0.071358    0.071358       0.002743
siesta:   71   -0.142716   -0.071358    0.071358       0.002743
siesta:   72   -0.071358   -0.071358    0.071358       0.002743
siesta:   73    0.000000   -0.071358    0.071358       0.002743
siesta:   74    0.071358   -0.071358    0.071358       0.002743
siesta:   75    0.142716   -0.071358    0.071358       0.002743
siesta:   76    0.214074   -0.071358    0.071358       0.002743
siesta:   77    0.285432   -0.071358    0.071358       0.002743
siesta:   78   -0.285432    0.000000    0.071358       0.002743
siesta:   79   -0.214074    0.000000    0.071358       0.002743
siesta:   80   -0.142716    0.000000    0.071358       0.002743
siesta:   81   -0.071358    0.000000    0.071358       0.002743
siesta:   82    0.000000    0.000000    0.071358       0.002743
siesta:   83    0.071358    0.000000    0.071358       0.002743
siesta:   84    0.142716    0.000000    0.071358       0.002743
siesta:   85    0.214074    0.000000    0.071358       0.002743
siesta:   86    0.285432    0.000000    0.071358       0.002743
siesta:   87   -0.285432    0.071358    0.071358       0.002743
siesta:   88   -0.214074    0.071358    0.071358       0.002743
siesta:   89   -0.142716    0.071358    0.071358       0.002743
siesta:   90   -0.071358    0.071358    0.071358       0.002743
siesta:   91    0.000000    0.071358    0.071358       0.002743
siesta:   92    0.071358    0.071358    0.071358       0.002743
siesta:   93    0.142716    0.071358    0.071358       0.002743
siesta:   94    0.214074    0.071358    0.071358       0.002743
siesta:   95    0.285432    0.071358    0.071358       0.002743
siesta:   96   -0.285432    0.142716    0.071358       0.002743
siesta:   97   -0.214074    0.142716    0.071358       0.002743
siesta:   98   -0.142716    0.142716    0.071358       0.002743
siesta:   99   -0.071358    0.142716    0.071358       0.002743
siesta:  100    0.000000    0.142716    0.071358       0.002743
siesta:  101    0.071358    0.142716    0.071358       0.002743
siesta:  102    0.142716    0.142716    0.071358       0.002743
siesta:  103    0.214074    0.142716    0.071358       0.002743
siesta:  104    0.285432    0.142716    0.071358       0.002743
siesta:  105   -0.285432    0.214074    0.071358       0.002743
siesta:  106   -0.214074    0.214074    0.071358       0.002743
siesta:  107   -0.142716    0.214074    0.071358       0.002743
siesta:  108   -0.071358    0.214074    0.071358       0.002743
siesta:  109    0.000000    0.214074    0.071358       0.002743
siesta:  110    0.071358    0.214074    0.071358       0.002743
siesta:  111    0.142716    0.214074    0.071358       0.002743
siesta:  112    0.214074    0.214074    0.071358       0.002743
siesta:  113    0.285432    0.214074    0.071358       0.002743
siesta:  114   -0.285432    0.285432    0.071358       0.002743
siesta:  115   -0.214074    0.285432    0.071358       0.002743
siesta:  116   -0.142716    0.285432    0.071358       0.002743
siesta:  117   -0.071358    0.285432    0.071358       0.002743
siesta:  118    0.000000    0.285432    0.071358       0.002743
siesta:  119    0.071358    0.285432    0.071358       0.002743
siesta:  120    0.142716    0.285432    0.071358       0.002743
siesta:  121    0.214074    0.285432    0.071358       0.002743
siesta:  122    0.285432    0.285432    0.071358       0.002743
siesta:  123   -0.285432   -0.285432    0.142716       0.002743
siesta:  124   -0.214074   -0.285432    0.142716       0.002743
siesta:  125   -0.142716   -0.285432    0.142716       0.002743
siesta:  126   -0.071358   -0.285432    0.142716       0.002743
siesta:  127    0.000000   -0.285432    0.142716       0.002743
siesta:  128    0.071358   -0.285432    0.142716       0.002743
siesta:  129    0.142716   -0.285432    0.142716       0.002743
siesta:  130    0.214074   -0.285432    0.142716       0.002743
siesta:  131    0.285432   -0.285432    0.142716       0.002743
siesta:  132   -0.285432   -0.214074    0.142716       0.002743
siesta:  133   -0.214074   -0.214074    0.142716       0.002743
siesta:  134   -0.142716   -0.214074    0.142716       0.002743
siesta:  135   -0.071358   -0.214074    0.142716       0.002743
siesta:  136    0.000000   -0.214074    0.142716       0.002743
siesta:  137    0.071358   -0.214074    0.142716       0.002743
siesta:  138    0.142716   -0.214074    0.142716       0.002743
siesta:  139    0.214074   -0.214074    0.142716       0.002743
siesta:  140    0.285432   -0.214074    0.142716       0.002743
siesta:  141   -0.285432   -0.142716    0.142716       0.002743
siesta:  142   -0.214074   -0.142716    0.142716       0.002743
siesta:  143   -0.142716   -0.142716    0.142716       0.002743
siesta:  144   -0.071358   -0.142716    0.142716       0.002743
siesta:  145    0.000000   -0.142716    0.142716       0.002743
siesta:  146    0.071358   -0.142716    0.142716       0.002743
siesta:  147    0.142716   -0.142716    0.142716       0.002743
siesta:  148    0.214074   -0.142716    0.142716       0.002743
siesta:  149    0.285432   -0.142716    0.142716       0.002743
siesta:  150   -0.285432   -0.071358    0.142716       0.002743
siesta:  151   -0.214074   -0.071358    0.142716       0.002743
siesta:  152   -0.142716   -0.071358    0.142716       0.002743
siesta:  153   -0.071358   -0.071358    0.142716       0.002743
siesta:  154    0.000000   -0.071358    0.142716       0.002743
siesta:  155    0.071358   -0.071358    0.142716       0.002743
siesta:  156    0.142716   -0.071358    0.142716       0.002743
siesta:  157    0.214074   -0.071358    0.142716       0.002743
siesta:  158    0.285432   -0.071358    0.142716       0.002743
siesta:  159   -0.285432    0.000000    0.142716       0.002743
siesta:  160   -0.214074    0.000000    0.142716       0.002743
siesta:  161   -0.142716    0.000000    0.142716       0.002743
siesta:  162   -0.071358    0.000000    0.142716       0.002743
siesta:  163    0.000000    0.000000    0.142716       0.002743
siesta:  164    0.071358    0.000000    0.142716       0.002743
siesta:  165    0.142716    0.000000    0.142716       0.002743
siesta:  166    0.214074    0.000000    0.142716       0.002743
siesta:  167    0.285432    0.000000    0.142716       0.002743
siesta:  168   -0.285432    0.071358    0.142716       0.002743
siesta:  169   -0.214074    0.071358    0.142716       0.002743
siesta:  170   -0.142716    0.071358    0.142716       0.002743
siesta:  171   -0.071358    0.071358    0.142716       0.002743
siesta:  172    0.000000    0.071358    0.142716       0.002743
siesta:  173    0.071358    0.071358    0.142716       0.002743
siesta:  174    0.142716    0.071358    0.142716       0.002743
siesta:  175    0.214074    0.071358    0.142716       0.002743
siesta:  176    0.285432    0.071358    0.142716       0.002743
siesta:  177   -0.285432    0.142716    0.142716       0.002743
siesta:  178   -0.214074    0.142716    0.142716       0.002743
siesta:  179   -0.142716    0.142716    0.142716       0.002743
siesta:  180   -0.071358    0.142716    0.142716       0.002743
siesta:  181    0.000000    0.142716    0.142716       0.002743
siesta:  182    0.071358    0.142716    0.142716       0.002743
siesta:  183    0.142716    0.142716    0.142716       0.002743
siesta:  184    0.214074    0.142716    0.142716       0.002743
siesta:  185    0.285432    0.142716    0.142716       0.002743
siesta:  186   -0.285432    0.214074    0.142716       0.002743
siesta:  187   -0.214074    0.214074    0.142716       0.002743
siesta:  188   -0.142716    0.214074    0.142716       0.002743
siesta:  189   -0.071358    0.214074    0.142716       0.002743
siesta:  190    0.000000    0.214074    0.142716       0.002743
siesta:  191    0.071358    0.214074    0.142716       0.002743
siesta:  192    0.142716    0.214074    0.142716       0.002743
siesta:  193    0.214074    0.214074    0.142716       0.002743
siesta:  194    0.285432    0.214074    0.142716       0.002743
siesta:  195   -0.285432    0.285432    0.142716       0.002743
siesta:  196   -0.214074    0.285432    0.142716       0.002743
siesta:  197   -0.142716    0.285432    0.142716       0.002743
siesta:  198   -0.071358    0.285432    0.142716       0.002743
siesta:  199    0.000000    0.285432    0.142716       0.002743
siesta:  200    0.071358    0.285432    0.142716       0.002743
siesta:  201    0.142716    0.285432    0.142716       0.002743
siesta:  202    0.214074    0.285432    0.142716       0.002743
siesta:  203    0.285432    0.285432    0.142716       0.002743
siesta:  204   -0.285432   -0.285432    0.214074       0.002743
siesta:  205   -0.214074   -0.285432    0.214074       0.002743
siesta:  206   -0.142716   -0.285432    0.214074       0.002743
siesta:  207   -0.071358   -0.285432    0.214074       0.002743
siesta:  208    0.000000   -0.285432    0.214074       0.002743
siesta:  209    0.071358   -0.285432    0.214074       0.002743
siesta:  210    0.142716   -0.285432    0.214074       0.002743
siesta:  211    0.214074   -0.285432    0.214074       0.002743
siesta:  212    0.285432   -0.285432    0.214074       0.002743
siesta:  213   -0.285432   -0.214074    0.214074       0.002743
siesta:  214   -0.214074   -0.214074    0.214074       0.002743
siesta:  215   -0.142716   -0.214074    0.214074       0.002743
siesta:  216   -0.071358   -0.214074    0.214074       0.002743
siesta:  217    0.000000   -0.214074    0.214074       0.002743
siesta:  218    0.071358   -0.214074    0.214074       0.002743
siesta:  219    0.142716   -0.214074    0.214074       0.002743
siesta:  220    0.214074   -0.214074    0.214074       0.002743
siesta:  221    0.285432   -0.214074    0.214074       0.002743
siesta:  222   -0.285432   -0.142716    0.214074       0.002743
siesta:  223   -0.214074   -0.142716    0.214074       0.002743
siesta:  224   -0.142716   -0.142716    0.214074       0.002743
siesta:  225   -0.071358   -0.142716    0.214074       0.002743
siesta:  226    0.000000   -0.142716    0.214074       0.002743
siesta:  227    0.071358   -0.142716    0.214074       0.002743
siesta:  228    0.142716   -0.142716    0.214074       0.002743
siesta:  229    0.214074   -0.142716    0.214074       0.002743
siesta:  230    0.285432   -0.142716    0.214074       0.002743
siesta:  231   -0.285432   -0.071358    0.214074       0.002743
siesta:  232   -0.214074   -0.071358    0.214074       0.002743
siesta:  233   -0.142716   -0.071358    0.214074       0.002743
siesta:  234   -0.071358   -0.071358    0.214074       0.002743
siesta:  235    0.000000   -0.071358    0.214074       0.002743
siesta:  236    0.071358   -0.071358    0.214074       0.002743
siesta:  237    0.142716   -0.071358    0.214074       0.002743
siesta:  238    0.214074   -0.071358    0.214074       0.002743
siesta:  239    0.285432   -0.071358    0.214074       0.002743
siesta:  240   -0.285432    0.000000    0.214074       0.002743
siesta:  241   -0.214074    0.000000    0.214074       0.002743
siesta:  242   -0.142716    0.000000    0.214074       0.002743
siesta:  243   -0.071358    0.000000    0.214074       0.002743
siesta:  244    0.000000    0.000000    0.214074       0.002743
siesta:  245    0.071358    0.000000    0.214074       0.002743
siesta:  246    0.142716    0.000000    0.214074       0.002743
siesta:  247    0.214074    0.000000    0.214074       0.002743
siesta:  248    0.285432    0.000000    0.214074       0.002743
siesta:  249   -0.285432    0.071358    0.214074       0.002743
siesta:  250   -0.214074    0.071358    0.214074       0.002743
siesta:  251   -0.142716    0.071358    0.214074       0.002743
siesta:  252   -0.071358    0.071358    0.214074       0.002743
siesta:  253    0.000000    0.071358    0.214074       0.002743
siesta:  254    0.071358    0.071358    0.214074       0.002743
siesta:  255    0.142716    0.071358    0.214074       0.002743
siesta:  256    0.214074    0.071358    0.214074       0.002743
siesta:  257    0.285432    0.071358    0.214074       0.002743
siesta:  258   -0.285432    0.142716    0.214074       0.002743
siesta:  259   -0.214074    0.142716    0.214074       0.002743
siesta:  260   -0.142716    0.142716    0.214074       0.002743
siesta:  261   -0.071358    0.142716    0.214074       0.002743
siesta:  262    0.000000    0.142716    0.214074       0.002743
siesta:  263    0.071358    0.142716    0.214074       0.002743
siesta:  264    0.142716    0.142716    0.214074       0.002743
siesta:  265    0.214074    0.142716    0.214074       0.002743
siesta:  266    0.285432    0.142716    0.214074       0.002743
siesta:  267   -0.285432    0.214074    0.214074       0.002743
siesta:  268   -0.214074    0.214074    0.214074       0.002743
siesta:  269   -0.142716    0.214074    0.214074       0.002743
siesta:  270   -0.071358    0.214074    0.214074       0.002743
siesta:  271    0.000000    0.214074    0.214074       0.002743
siesta:  272    0.071358    0.214074    0.214074       0.002743
siesta:  273    0.142716    0.214074    0.214074       0.002743
siesta:  274    0.214074    0.214074    0.214074       0.002743
siesta:  275    0.285432    0.214074    0.214074       0.002743
siesta:  276   -0.285432    0.285432    0.214074       0.002743
siesta:  277   -0.214074    0.285432    0.214074       0.002743
siesta:  278   -0.142716    0.285432    0.214074       0.002743
siesta:  279   -0.071358    0.285432    0.214074       0.002743
siesta:  280    0.000000    0.285432    0.214074       0.002743
siesta:  281    0.071358    0.285432    0.214074       0.002743
siesta:  282    0.142716    0.285432    0.214074       0.002743
siesta:  283    0.214074    0.285432    0.214074       0.002743
siesta:  284    0.285432    0.285432    0.214074       0.002743
siesta:  285   -0.285432   -0.285432    0.285432       0.002743
siesta:  286   -0.214074   -0.285432    0.285432       0.002743
siesta:  287   -0.142716   -0.285432    0.285432       0.002743
siesta:  288   -0.071358   -0.285432    0.285432       0.002743
siesta:  289    0.000000   -0.285432    0.285432       0.002743
siesta:  290    0.071358   -0.285432    0.285432       0.002743
siesta:  291    0.142716   -0.285432    0.285432       0.002743
siesta:  292    0.214074   -0.285432    0.285432       0.002743
siesta:  293    0.285432   -0.285432    0.285432       0.002743
siesta:  294   -0.285432   -0.214074    0.285432       0.002743
siesta:  295   -0.214074   -0.214074    0.285432       0.002743
siesta:  296   -0.142716   -0.214074    0.285432       0.002743
siesta:  297   -0.071358   -0.214074    0.285432       0.002743
siesta:  298    0.000000   -0.214074    0.285432       0.002743
siesta:  299    0.071358   -0.214074    0.285432       0.002743
siesta:  300    0.142716   -0.214074    0.285432       0.002743
siesta:  301    0.214074   -0.214074    0.285432       0.002743
siesta:  302    0.285432   -0.214074    0.285432       0.002743
siesta:  303   -0.285432   -0.142716    0.285432       0.002743
siesta:  304   -0.214074   -0.142716    0.285432       0.002743
siesta:  305   -0.142716   -0.142716    0.285432       0.002743
siesta:  306   -0.071358   -0.142716    0.285432       0.002743
siesta:  307    0.000000   -0.142716    0.285432       0.002743
siesta:  308    0.071358   -0.142716    0.285432       0.002743
siesta:  309    0.142716   -0.142716    0.285432       0.002743
siesta:  310    0.214074   -0.142716    0.285432       0.002743
siesta:  311    0.285432   -0.142716    0.285432       0.002743
siesta:  312   -0.285432   -0.071358    0.285432       0.002743
siesta:  313   -0.214074   -0.071358    0.285432       0.002743
siesta:  314   -0.142716   -0.071358    0.285432       0.002743
siesta:  315   -0.071358   -0.071358    0.285432       0.002743
siesta:  316    0.000000   -0.071358    0.285432       0.002743
siesta:  317    0.071358   -0.071358    0.285432       0.002743
siesta:  318    0.142716   -0.071358    0.285432       0.002743
siesta:  319    0.214074   -0.071358    0.285432       0.002743
siesta:  320    0.285432   -0.071358    0.285432       0.002743
siesta:  321   -0.285432    0.000000    0.285432       0.002743
siesta:  322   -0.214074    0.000000    0.285432       0.002743
siesta:  323   -0.142716    0.000000    0.285432       0.002743
siesta:  324   -0.071358    0.000000    0.285432       0.002743
siesta:  325    0.000000    0.000000    0.285432       0.002743
siesta:  326    0.071358    0.000000    0.285432       0.002743
siesta:  327    0.142716    0.000000    0.285432       0.002743
siesta:  328    0.214074    0.000000    0.285432       0.002743
siesta:  329    0.285432    0.000000    0.285432       0.002743
siesta:  330   -0.285432    0.071358    0.285432       0.002743
siesta:  331   -0.214074    0.071358    0.285432       0.002743
siesta:  332   -0.142716    0.071358    0.285432       0.002743
siesta:  333   -0.071358    0.071358    0.285432       0.002743
siesta:  334    0.000000    0.071358    0.285432       0.002743
siesta:  335    0.071358    0.071358    0.285432       0.002743
siesta:  336    0.142716    0.071358    0.285432       0.002743
siesta:  337    0.214074    0.071358    0.285432       0.002743
siesta:  338    0.285432    0.071358    0.285432       0.002743
siesta:  339   -0.285432    0.142716    0.285432       0.002743
siesta:  340   -0.214074    0.142716    0.285432       0.002743
siesta:  341   -0.142716    0.142716    0.285432       0.002743
siesta:  342   -0.071358    0.142716    0.285432       0.002743
siesta:  343    0.000000    0.142716    0.285432       0.002743
siesta:  344    0.071358    0.142716    0.285432       0.002743
siesta:  345    0.142716    0.142716    0.285432       0.002743
siesta:  346    0.214074    0.142716    0.285432       0.002743
siesta:  347    0.285432    0.142716    0.285432       0.002743
siesta:  348   -0.285432    0.214074    0.285432       0.002743
siesta:  349   -0.214074    0.214074    0.285432       0.002743
siesta:  350   -0.142716    0.214074    0.285432       0.002743
siesta:  351   -0.071358    0.214074    0.285432       0.002743
siesta:  352    0.000000    0.214074    0.285432       0.002743
siesta:  353    0.071358    0.214074    0.285432       0.002743
siesta:  354    0.142716    0.214074    0.285432       0.002743
siesta:  355    0.214074    0.214074    0.285432       0.002743
siesta:  356    0.285432    0.214074    0.285432       0.002743
siesta:  357   -0.285432    0.285432    0.285432       0.002743
siesta:  358   -0.214074    0.285432    0.285432       0.002743
siesta:  359   -0.142716    0.285432    0.285432       0.002743
siesta:  360   -0.071358    0.285432    0.285432       0.002743
siesta:  361    0.000000    0.285432    0.285432       0.002743
siesta:  362    0.071358    0.285432    0.285432       0.002743
siesta:  363    0.142716    0.285432    0.285432       0.002743
siesta:  364    0.214074    0.285432    0.285432       0.002743
siesta:  365    0.285432    0.285432    0.285432       0.002743

siesta: k-grid: Number of k-points =   365
siesta: k-grid: Cutoff (effective) =    23.297 Ang
siesta: k-grid: Supercell and displacements
siesta: k-grid:    9   0   0      0.000
siesta: k-grid:    0   9   0      0.000
siesta: k-grid:    0   0   9      0.000
Using current reciprocal lattice vectors for BandLinesScale
Beware any cell changes by the end of the run
Using current reciprocal lattice vectors for BandLinesScale
Beware any cell changes by the end of the run

superc: Internal auxiliary supercell:     5 x     5 x     5  =     125
superc: Number of atoms, orbitals, and projectors:   1500  23500  23500


                     ====================================
                        Single-point calculation
                     ====================================

outcoor: Atomic coordinates (fractional):                   
    0.25000000    0.25000000    0.25000000   3       1  VO
    0.75000000    0.75000000    0.75000000   1       2  O
    0.75000000    0.75000000    0.25000000   1       3  O
    0.25000000    0.25000000    0.75000000   1       4  O
    0.75000000    0.25000000    0.75000000   1       5  O
    0.25000000    0.75000000    0.25000000   1       6  O
    0.25000000    0.75000000    0.75000000   1       7  O
    0.75000000    0.25000000    0.25000000   1       8  O
    0.00000000    0.00000000    0.00000000   2       9  Zr
    0.00000000    0.50000000    0.50000000   2      10  Zr
    0.50000000    0.00000000    0.50000000   2      11  Zr
    0.50000000    0.50000000    0.00000000   2      12  Zr

superc: Internal auxiliary supercell:     5 x     5 x     5  =     125
superc: Number of atoms, orbitals, and projectors:   1500  23500  23500

outcell: Unit cell vectors (Ang):
        5.177213    0.000000    0.000000
        0.000000    5.177213    0.000000
        0.000000    0.000000    5.177213

outcell: Cell vector modules (Ang)   :    5.177213    5.177213    5.177213
outcell: Cell angles (23,13,12) (deg):     90.0000     90.0000     90.0000
outcell: Cell volume (Ang**3)        :    138.7676
<dSpData1D:S at geom step 0
  <sparsity:sparsity for geom step 0
    nrows_g=188 nrows=24 sparsity=.9675 nnzs=34196, refcount: 7>
  <dData1D:(new from dSpData1D) n=34196, refcount: 1>
refcount: 1>
new_DM -- step:     1
Initializing Density Matrix...

Attempting to read DM from file... Succeeded...
DM from file:
<dSpData2D:IO-DM: ZrO2-G.DM
  <sparsity:IO-DM: ZrO2-G.DM
    nrows_g=188 nrows=24 sparsity=.9675 nnzs=34196, refcount: 1>
  <dData2D:(new from dSpData2D) n=34196 m=2, refcount: 1>
refcount: 1>

initDM: Initial spin polarization (Qup-Qdown) =    0.000000

No. of atoms with KB's overlaping orbs in proc 0. Max # of overlaps:      57     413
New grid distribution:   1
           1       1:   40    1:   20    1:   10
           2       1:   40    1:   20   11:   20
           3       1:   40    1:   20   21:   30
           4       1:   40    1:   20   31:   40
           5       1:   40   21:   40    1:   10
           6       1:   40   21:   40   11:   20
           7       1:   40   21:   40   21:   30
           8       1:   40   21:   40   31:   40

InitMesh: MESH =    80 x    80 x    80 =      512000
InitMesh: (bp) =    40 x    40 x    40 =       64000
InitMesh: Mesh cutoff (required, used) =   600.000   659.917 Ry
ExtMesh (bp) on 0 =   144 x   124 x   114 =     2035584
New grid distribution:   2
           1       1:   20   21:   40   21:   40
           2      21:   40    1:   20    1:   20
           3      21:   40    1:   20   21:   40
           4      21:   40   21:   40    1:   20
           5       1:   20    1:   20   21:   40
           6       1:   20    1:   20    1:   20
           7      21:   40   21:   40   21:   40
           8       1:   20   21:   40    1:   20
New grid distribution:   3
           1       1:   20   21:   40   21:   40
           2      21:   40    1:   20    1:   20
           3      21:   40    1:   20   21:   40
           4      21:   40   21:   40    1:   20
           5       1:   20    1:   20   21:   40
           6       1:   20    1:   20    1:   20
           7      21:   40   21:   40   21:   40
           8       1:   20   21:   40    1:   20
Setting up quadratic distribution...
ExtMesh (bp) on 0 =   124 x   124 x   124 =     1906624
PhiOnMesh: Number of (b)points on node 0 =                 8000
PhiOnMesh: nlist on node 0 =               711638

stepf: Fermi-Dirac step function

siesta: Program's energy decomposition (eV):
siesta: Ebs     =     -1535.241538
siesta: Eions   =      7557.999482
siesta: Ena     =       624.163474
siesta: Ekin    =      3559.854877
siesta: Enl     =     -1619.358093
siesta: Eso     =         0.000000
siesta: Eldau   =         0.000000
siesta: DEna    =      -193.472625
siesta: DUscf   =        34.825799
siesta: DUext   =         0.000000
siesta: Exc     =     -1487.126527
siesta: eta*DQ  =         0.000000
siesta: Emadel  =         0.000000
siesta: Emeta   =         0.000000
siesta: Emolmec =         0.000000
siesta: Ekinion =         0.000000
siesta: Eharris =     -6639.112578
siesta: Etot    =     -6639.112578
siesta: FreeEng =     -6639.112578

        iscf     Eharris(eV)        E_KS(eV)     FreeEng(eV)     dDmax    Ef(eV) dHmax(eV)
   scf:    1    -6639.112578    -6639.112578    -6639.112578  0.000020 -4.105035  0.000979

SCF Convergence by DM+H criterion
max |DM_out - DM_in|         :     0.0000198776
max |H_out - H_in|      (eV) :     0.0009788822
SCF cycle converged after 1 iterations
timer: Routine,Calls,Time,% = IterSCF        1      38.418  78.51

Using DM_out to compute the final energy and forces
No. of atoms with KB's overlaping orbs in proc 0. Max # of overlaps:      57     413

siesta: E_KS(eV) =            -6639.1126

siesta: E_KS - E_eggbox =     -6639.1126

siesta: Total spin polarization (Qup-Qdown) =   -0.000000

siesta: Atomic forces (eV/Ang):
     1    0.000000    0.000000    0.000000
     2   -0.000000   -0.000000   -0.000000
     3   -0.000000   -0.000000    0.000000
     4    0.000000    0.000000   -0.000000
     5   -0.000000   -0.000000   -0.000000
     6    0.000000   -0.000000    0.000000
     7   -0.000000   -0.000000   -0.000000
     8   -0.000000    0.000000    0.000000
     9   -0.145644   -0.145644   -0.145644
    10   -0.145644    0.145644    0.145644
    11    0.145644   -0.145644    0.145644
    12    0.145644    0.145644   -0.145644
----------------------------------------
   Tot    0.000000    0.000000    0.000000
----------------------------------------
   Max    0.145644
   Res    0.084087    sqrt( Sum f_i^2 / 3N )
----------------------------------------
   Max    0.145644    constrained

Stress-tensor-Voigt (kbar):       23.92       23.92       23.92       -0.00       -0.00       -0.00
(Free)E + p*V (eV/cell)    -6641.1844
Target enthalpy (eV/cell)    -6639.1126

siesta: Stress tensor (static) (eV/Ang**3):
         0.014930   -0.000000   -0.000000
        -0.000000    0.014930   -0.000000
        -0.000000   -0.000000    0.014930

siesta: Pressure (static):        -23.92070610  kBar

siesta: Stress tensor (total) (eV/Ang**3):
         0.014930   -0.000000   -0.000000
        -0.000000    0.014930   -0.000000
        -0.000000   -0.000000    0.014930

siesta: Pressure (total):        -23.92070610  kBar

mulliken: Atomic and Orbital Populations:

mulliken: Spin UP 

Species: O                   
Atom  Qatom  Qorb
               2s      2s      2py     2pz     2px     2py     2pz     2px     
               3dxy    3dyz    3dz2    3dxz    3dx2-y2 
   2  3.523   1.003  -0.039   0.602   0.602   0.602   0.248   0.248   0.248
              0.002   0.002   0.002   0.002   0.002
   3  3.538   1.004  -0.040   0.607   0.598   0.607   0.248   0.256   0.248
              0.001   0.001   0.002   0.001   0.002
   4  3.556   0.998  -0.034   0.599   0.653   0.599   0.258   0.214   0.258
              0.002   0.001   0.003   0.001   0.002
   5  3.538   1.004  -0.040   0.598   0.607   0.607   0.256   0.248   0.248
              0.001   0.001   0.002   0.001   0.002
   6  3.556   0.998  -0.034   0.653   0.599   0.599   0.214   0.258   0.258
              0.001   0.001   0.002   0.002   0.003
   7  3.538   1.004  -0.040   0.607   0.607   0.598   0.248   0.248   0.256
              0.001   0.001   0.002   0.001   0.002
   8  3.556   0.998  -0.034   0.599   0.599   0.653   0.258   0.258   0.214
              0.001   0.002   0.002   0.001   0.003

Species: Zr                  
Atom  Qatom  Qorb
               5s      5s      4py     4pz     4px     4py     4pz     4px     
               5py     5pz     5px     4dxy    4dyz    4dz2    4dxz    4dx2-y2 
               4dxy    4dyz    4dz2    4dxz    4dx2-y2 
   9  3.997   0.081  -0.016   0.986   0.986   0.986   0.022   0.022   0.022
              0.013   0.013   0.013   0.191   0.191   0.107   0.191   0.107

              0.028   0.028   0.000   0.028   0.000
  10  3.997   0.081  -0.016   0.986   0.986   0.986   0.022   0.022   0.022
              0.013   0.013   0.013   0.191   0.191   0.107   0.191   0.107

              0.028   0.028   0.000   0.028   0.000
  11  3.997   0.081  -0.016   0.986   0.986   0.986   0.022   0.022   0.022
              0.013   0.013   0.013   0.191   0.191   0.107   0.191   0.107

              0.028   0.028   0.000   0.028   0.000
  12  3.997   0.081  -0.016   0.986   0.986   0.986   0.022   0.022   0.022
              0.013   0.013   0.013   0.191   0.191   0.107   0.191   0.107

              0.028   0.028   0.000   0.028   0.000

Species: VO                  
Atom  Qatom  Qorb
               2s      2s      2py     2pz     2px     2py     2pz     2px     
               3dxy    3dyz    3dz2    3dxz    3dx2-y2 
   1  0.208   0.280  -0.132   0.038   0.038   0.038  -0.018  -0.018  -0.018
              0.000   0.000   0.000   0.000   0.000

mulliken: Qtot =       41.000

mulliken: Spin DOWN 

Species: O                   
Atom  Qatom  Qorb
               2s      2s      2py     2pz     2px     2py     2pz     2px     
               3dxy    3dyz    3dz2    3dxz    3dx2-y2 
   2  3.523   1.003  -0.039   0.602   0.602   0.602   0.248   0.248   0.248
              0.002   0.002   0.002   0.002   0.002
   3  3.538   1.004  -0.040   0.607   0.598   0.607   0.248   0.256   0.248
              0.001   0.001   0.002   0.001   0.002
   4  3.556   0.998  -0.034   0.599   0.653   0.599   0.258   0.214   0.258
              0.002   0.001   0.003   0.001   0.002
   5  3.538   1.004  -0.040   0.598   0.607   0.607   0.256   0.248   0.248
              0.001   0.001   0.002   0.001   0.002
   6  3.556   0.998  -0.034   0.653   0.599   0.599   0.214   0.258   0.258
              0.001   0.001   0.002   0.002   0.003
   7  3.538   1.004  -0.040   0.607   0.607   0.598   0.248   0.248   0.256
              0.001   0.001   0.002   0.001   0.002
   8  3.556   0.998  -0.034   0.599   0.599   0.653   0.258   0.258   0.214
              0.001   0.002   0.002   0.001   0.003

Species: Zr                  
Atom  Qatom  Qorb
               5s      5s      4py     4pz     4px     4py     4pz     4px     
               5py     5pz     5px     4dxy    4dyz    4dz2    4dxz    4dx2-y2 
               4dxy    4dyz    4dz2    4dxz    4dx2-y2 
   9  3.997   0.081  -0.016   0.986   0.986   0.986   0.022   0.022   0.022
              0.013   0.013   0.013   0.191   0.191   0.107   0.191   0.107

              0.028   0.028   0.000   0.028   0.000
  10  3.997   0.081  -0.016   0.986   0.986   0.986   0.022   0.022   0.022
              0.013   0.013   0.013   0.191   0.191   0.107   0.191   0.107

              0.028   0.028   0.000   0.028   0.000
  11  3.997   0.081  -0.016   0.986   0.986   0.986   0.022   0.022   0.022
              0.013   0.013   0.013   0.191   0.191   0.107   0.191   0.107

              0.028   0.028   0.000   0.028   0.000
  12  3.997   0.081  -0.016   0.986   0.986   0.986   0.022   0.022   0.022
              0.013   0.013   0.013   0.191   0.191   0.107   0.191   0.107

              0.028   0.028   0.000   0.028   0.000

Species: VO                  
Atom  Qatom  Qorb
               2s      2s      2py     2pz     2px     2py     2pz     2px     
               3dxy    3dyz    3dz2    3dxz    3dx2-y2 
   1  0.208   0.280  -0.132   0.038   0.038   0.038  -0.018  -0.018  -0.018
              0.000   0.000   0.000   0.000   0.000

mulliken: Qtot =       41.000

outcell: Unit cell vectors (Ang):
        5.177213    0.000000    0.000000
        0.000000    5.177213    0.000000
        0.000000    0.000000    5.177213

outcell: Cell vector modules (Ang)   :    5.177213    5.177213    5.177213
outcell: Cell angles (23,13,12) (deg):     90.0000     90.0000     90.0000
outcell: Cell volume (Ang**3)        :    138.7676
Computing bands...

siesta: Band k vectors (Bohr**-1):
  ik           k
   1    0.000000    0.000000    0.000000
   2    0.001606    0.001606    0.000000
   3    0.003211    0.003211    0.000000
   4    0.004817    0.004817    0.000000
   5    0.006422    0.006422    0.000000
   6    0.008028    0.008028    0.000000
   7    0.009633    0.009633    0.000000
   8    0.011239    0.011239    0.000000
   9    0.012844    0.012844    0.000000
  10    0.014450    0.014450    0.000000
  11    0.016056    0.016056    0.000000
  12    0.017661    0.017661    0.000000
  13    0.019267    0.019267    0.000000
  14    0.020872    0.020872    0.000000
  15    0.022478    0.022478    0.000000
  16    0.024083    0.024083    0.000000
  17    0.025689    0.025689    0.000000
  18    0.027294    0.027294    0.000000
  19    0.028900    0.028900    0.000000
  20    0.030506    0.030506    0.000000
  21    0.032111    0.032111    0.000000
  22    0.033717    0.033717    0.000000
  23    0.035322    0.035322    0.000000
  24    0.036928    0.036928    0.000000
  25    0.038533    0.038533    0.000000
  26    0.040139    0.040139    0.000000
  27    0.041744    0.041744    0.000000
  28    0.043350    0.043350    0.000000
  29    0.044956    0.044956    0.000000
  30    0.046561    0.046561    0.000000
  31    0.048167    0.048167    0.000000
  32    0.049772    0.049772    0.000000
  33    0.051378    0.051378    0.000000
  34    0.052983    0.052983    0.000000
  35    0.054589    0.054589    0.000000
  36    0.056194    0.056194    0.000000
  37    0.057800    0.057800    0.000000
  38    0.059405    0.059405    0.000000
  39    0.061011    0.061011    0.000000
  40    0.062617    0.062617    0.000000
  41    0.064222    0.064222    0.000000
  42    0.065828    0.065828    0.000000
  43    0.067433    0.067433    0.000000
  44    0.069039    0.069039    0.000000
  45    0.070644    0.070644    0.000000
  46    0.072250    0.072250    0.000000
  47    0.073855    0.073855    0.000000
  48    0.075461    0.075461    0.000000
  49    0.077067    0.077067    0.000000
  50    0.078672    0.078672    0.000000
  51    0.080278    0.080278    0.000000
  52    0.081883    0.081883    0.000000
  53    0.083489    0.083489    0.000000
  54    0.085094    0.085094    0.000000
  55    0.086700    0.086700    0.000000
  56    0.088305    0.088305    0.000000
  57    0.089911    0.089911    0.000000
  58    0.091517    0.091517    0.000000
  59    0.093122    0.093122    0.000000
  60    0.094728    0.094728    0.000000
  61    0.096333    0.096333    0.000000
  62    0.097939    0.097939    0.000000
  63    0.099544    0.099544    0.000000
  64    0.101150    0.101150    0.000000
  65    0.102755    0.102755    0.000000
  66    0.104361    0.104361    0.000000
  67    0.105967    0.105967    0.000000
  68    0.107572    0.107572    0.000000
  69    0.109178    0.109178    0.000000
  70    0.110783    0.110783    0.000000
  71    0.112389    0.112389    0.000000
  72    0.113994    0.113994    0.000000
  73    0.115600    0.115600    0.000000
  74    0.117205    0.117205    0.000000
  75    0.118811    0.118811    0.000000
  76    0.120417    0.120417    0.000000
  77    0.122022    0.122022    0.000000
  78    0.123628    0.123628    0.000000
  79    0.125233    0.125233    0.000000
  80    0.126839    0.126839    0.000000
  81    0.128444    0.128444    0.000000
  82    0.130050    0.130050    0.000000
  83    0.131655    0.131655    0.000000
  84    0.133261    0.133261    0.000000
  85    0.134867    0.134867    0.000000
  86    0.136472    0.136472    0.000000
  87    0.138078    0.138078    0.000000
  88    0.139683    0.139683    0.000000
  89    0.141289    0.141289    0.000000
  90    0.142894    0.142894    0.000000
  91    0.144500    0.144500    0.000000
  92    0.146105    0.146105    0.000000
  93    0.147711    0.147711    0.000000
  94    0.149316    0.149316    0.000000
  95    0.150922    0.150922    0.000000
  96    0.152528    0.152528    0.000000
  97    0.154133    0.154133    0.000000
  98    0.155739    0.155739    0.000000
  99    0.157344    0.157344    0.000000
 100    0.158950    0.158950    0.000000
 101    0.160555    0.160555    0.000000
 102    0.162161    0.162161    0.000000
 103    0.163766    0.163766    0.000000
 104    0.165372    0.165372    0.000000
 105    0.166978    0.166978    0.000000
 106    0.168583    0.168583    0.000000
 107    0.170189    0.170189    0.000000
 108    0.171794    0.171794    0.000000
 109    0.173400    0.173400    0.000000
 110    0.175005    0.175005    0.000000
 111    0.176611    0.176611    0.000000
 112    0.178216    0.178216    0.000000
 113    0.179822    0.179822    0.000000
 114    0.181428    0.181428    0.000000
 115    0.183033    0.183033    0.000000
 116    0.184639    0.184639    0.000000
 117    0.186244    0.186244    0.000000
 118    0.187850    0.187850    0.000000
 119    0.189455    0.189455    0.000000
 120    0.191061    0.191061    0.000000
 121    0.192666    0.192666    0.000000
 122    0.194272    0.194272    0.000000
 123    0.195878    0.195878    0.000000
 124    0.197483    0.197483    0.000000
 125    0.199089    0.199089    0.000000
 126    0.200694    0.200694    0.000000
 127    0.202300    0.202300    0.000000
 128    0.203905    0.203905    0.000000
 129    0.205511    0.205511    0.000000
 130    0.207116    0.207116    0.000000
 131    0.208722    0.208722    0.000000
 132    0.210328    0.210328    0.000000
 133    0.211933    0.211933    0.000000
 134    0.213539    0.213539    0.000000
 135    0.215144    0.215144    0.000000
 136    0.216750    0.216750    0.000000
 137    0.218355    0.218355    0.000000
 138    0.219961    0.219961    0.000000
 139    0.221566    0.221566    0.000000
 140    0.223172    0.223172    0.000000
 141    0.224778    0.224778    0.000000
 142    0.226383    0.226383    0.000000
 143    0.227989    0.227989    0.000000
 144    0.229594    0.229594    0.000000
 145    0.231200    0.231200    0.000000
 146    0.232805    0.232805    0.000000
 147    0.234411    0.234411    0.000000
 148    0.236016    0.236016    0.000000
 149    0.237622    0.237622    0.000000
 150    0.239227    0.239227    0.000000
 151    0.240833    0.240833    0.000000
 152    0.242439    0.242439    0.000000
 153    0.244044    0.244044    0.000000
 154    0.245650    0.245650    0.000000
 155    0.247255    0.247255    0.000000
 156    0.248861    0.248861    0.000000
 157    0.250466    0.250466    0.000000
 158    0.252072    0.252072    0.000000
 159    0.253677    0.253677    0.000000
 160    0.255283    0.255283    0.000000
 161    0.256889    0.256889    0.000000
 162    0.258494    0.258494    0.000000
 163    0.260100    0.260100    0.000000
 164    0.261705    0.261705    0.000000
 165    0.263311    0.263311    0.000000
 166    0.264916    0.264916    0.000000
 167    0.266522    0.266522    0.000000
 168    0.268127    0.268127    0.000000
 169    0.269733    0.269733    0.000000
 170    0.271339    0.271339    0.000000
 171    0.272944    0.272944    0.000000
 172    0.274550    0.274550    0.000000
 173    0.276155    0.276155    0.000000
 174    0.277761    0.277761    0.000000
 175    0.279366    0.279366    0.000000
 176    0.280972    0.280972    0.000000
 177    0.282577    0.282577    0.000000
 178    0.284183    0.284183    0.000000
 179    0.285789    0.285789    0.000000
 180    0.287394    0.287394    0.000000
 181    0.289000    0.289000    0.000000
 182    0.290605    0.290605    0.000000
 183    0.292211    0.292211    0.000000
 184    0.293816    0.293816    0.000000
 185    0.295422    0.295422    0.000000
 186    0.297027    0.297027    0.000000
 187    0.298633    0.298633    0.000000
 188    0.300239    0.300239    0.000000
 189    0.301844    0.301844    0.000000
 190    0.303450    0.303450    0.000000
 191    0.305055    0.305055    0.000000
 192    0.306661    0.306661    0.000000
 193    0.308266    0.308266    0.000000
 194    0.309872    0.309872    0.000000
 195    0.311477    0.311477    0.000000
 196    0.313083    0.313083    0.000000
 197    0.314689    0.314689    0.000000
 198    0.316294    0.316294    0.000000
 199    0.317900    0.317900    0.000000
 200    0.319505    0.319505    0.000000
 201    0.321111    0.321111    0.000000
 202    0.319505    0.321111    0.000000
 203    0.317900    0.321111    0.000000
 204    0.316294    0.321111    0.000000
 205    0.314689    0.321111    0.000000
 206    0.313083    0.321111    0.000000
 207    0.311477    0.321111    0.000000
 208    0.309872    0.321111    0.000000
 209    0.308266    0.321111    0.000000
 210    0.306661    0.321111    0.000000
 211    0.305055    0.321111    0.000000
 212    0.303450    0.321111    0.000000
 213    0.301844    0.321111    0.000000
 214    0.300239    0.321111    0.000000
 215    0.298633    0.321111    0.000000
 216    0.297027    0.321111    0.000000
 217    0.295422    0.321111    0.000000
 218    0.293816    0.321111    0.000000
 219    0.292211    0.321111    0.000000
 220    0.290605    0.321111    0.000000
 221    0.289000    0.321111    0.000000
 222    0.287394    0.321111    0.000000
 223    0.285789    0.321111    0.000000
 224    0.284183    0.321111    0.000000
 225    0.282577    0.321111    0.000000
 226    0.280972    0.321111    0.000000
 227    0.279366    0.321111    0.000000
 228    0.277761    0.321111    0.000000
 229    0.276155    0.321111    0.000000
 230    0.274550    0.321111    0.000000
 231    0.272944    0.321111    0.000000
 232    0.271339    0.321111    0.000000
 233    0.269733    0.321111    0.000000
 234    0.268127    0.321111    0.000000
 235    0.266522    0.321111    0.000000
 236    0.264916    0.321111    0.000000
 237    0.263311    0.321111    0.000000
 238    0.261705    0.321111    0.000000
 239    0.260100    0.321111    0.000000
 240    0.258494    0.321111    0.000000
 241    0.256889    0.321111    0.000000
 242    0.255283    0.321111    0.000000
 243    0.253677    0.321111    0.000000
 244    0.252072    0.321111    0.000000
 245    0.250466    0.321111    0.000000
 246    0.248861    0.321111    0.000000
 247    0.247255    0.321111    0.000000
 248    0.245650    0.321111    0.000000
 249    0.244044    0.321111    0.000000
 250    0.242439    0.321111    0.000000
 251    0.240833    0.321111    0.000000
 252    0.239227    0.321111    0.000000
 253    0.237622    0.321111    0.000000
 254    0.236016    0.321111    0.000000
 255    0.234411    0.321111    0.000000
 256    0.232805    0.321111    0.000000
 257    0.231200    0.321111    0.000000
 258    0.229594    0.321111    0.000000
 259    0.227989    0.321111    0.000000
 260    0.226383    0.321111    0.000000
 261    0.224778    0.321111    0.000000
 262    0.223172    0.321111    0.000000
 263    0.221566    0.321111    0.000000
 264    0.219961    0.321111    0.000000
 265    0.218355    0.321111    0.000000
 266    0.216750    0.321111    0.000000
 267    0.215144    0.321111    0.000000
 268    0.213539    0.321111    0.000000
 269    0.211933    0.321111    0.000000
 270    0.210328    0.321111    0.000000
 271    0.208722    0.321111    0.000000
 272    0.207116    0.321111    0.000000
 273    0.205511    0.321111    0.000000
 274    0.203905    0.321111    0.000000
 275    0.202300    0.321111    0.000000
 276    0.200694    0.321111    0.000000
 277    0.199089    0.321111    0.000000
 278    0.197483    0.321111    0.000000
 279    0.195878    0.321111    0.000000
 280    0.194272    0.321111    0.000000
 281    0.192666    0.321111    0.000000
 282    0.191061    0.321111    0.000000
 283    0.189455    0.321111    0.000000
 284    0.187850    0.321111    0.000000
 285    0.186244    0.321111    0.000000
 286    0.184639    0.321111    0.000000
 287    0.183033    0.321111    0.000000
 288    0.181428    0.321111    0.000000
 289    0.179822    0.321111    0.000000
 290    0.178216    0.321111    0.000000
 291    0.176611    0.321111    0.000000
 292    0.175005    0.321111    0.000000
 293    0.173400    0.321111    0.000000
 294    0.171794    0.321111    0.000000
 295    0.170189    0.321111    0.000000
 296    0.168583    0.321111    0.000000
 297    0.166978    0.321111    0.000000
 298    0.165372    0.321111    0.000000
 299    0.163766    0.321111    0.000000
 300    0.162161    0.321111    0.000000
 301    0.160555    0.321111    0.000000
 302    0.158950    0.321111    0.000000
 303    0.157344    0.321111    0.000000
 304    0.155739    0.321111    0.000000
 305    0.154133    0.321111    0.000000
 306    0.152528    0.321111    0.000000
 307    0.150922    0.321111    0.000000
 308    0.149316    0.321111    0.000000
 309    0.147711    0.321111    0.000000
 310    0.146105    0.321111    0.000000
 311    0.144500    0.321111    0.000000
 312    0.142894    0.321111    0.000000
 313    0.141289    0.321111    0.000000
 314    0.139683    0.321111    0.000000
 315    0.138078    0.321111    0.000000
 316    0.136472    0.321111    0.000000
 317    0.134867    0.321111    0.000000
 318    0.133261    0.321111    0.000000
 319    0.131655    0.321111    0.000000
 320    0.130050    0.321111    0.000000
 321    0.128444    0.321111    0.000000
 322    0.126839    0.321111    0.000000
 323    0.125233    0.321111    0.000000
 324    0.123628    0.321111    0.000000
 325    0.122022    0.321111    0.000000
 326    0.120417    0.321111    0.000000
 327    0.118811    0.321111    0.000000
 328    0.117205    0.321111    0.000000
 329    0.115600    0.321111    0.000000
 330    0.113994    0.321111    0.000000
 331    0.112389    0.321111    0.000000
 332    0.110783    0.321111    0.000000
 333    0.109178    0.321111    0.000000
 334    0.107572    0.321111    0.000000
 335    0.105967    0.321111    0.000000
 336    0.104361    0.321111    0.000000
 337    0.102755    0.321111    0.000000
 338    0.101150    0.321111    0.000000
 339    0.099544    0.321111    0.000000
 340    0.097939    0.321111    0.000000
 341    0.096333    0.321111    0.000000
 342    0.094728    0.321111    0.000000
 343    0.093122    0.321111    0.000000
 344    0.091517    0.321111    0.000000
 345    0.089911    0.321111    0.000000
 346    0.088305    0.321111    0.000000
 347    0.086700    0.321111    0.000000
 348    0.085094    0.321111    0.000000
 349    0.083489    0.321111    0.000000
 350    0.081883    0.321111    0.000000
 351    0.080278    0.321111    0.000000
 352    0.078672    0.321111    0.000000
 353    0.077067    0.321111    0.000000
 354    0.075461    0.321111    0.000000
 355    0.073855    0.321111    0.000000
 356    0.072250    0.321111    0.000000
 357    0.070644    0.321111    0.000000
[...]
         -0.91  -0.89  -0.68  -0.49  -0.48   0.06   0.27   0.33   0.95   1.01
          2.31   2.70   2.80   3.21   4.70   5.19   5.65   5.66   7.26   8.55
          8.62   9.77  10.57  11.17  11.72  11.91  12.39  12.74  13.30  13.66
         13.98  14.92  14.96  15.32  15.40  15.68  15.76  15.84  16.89  16.91
         17.53  17.81  18.13  20.30  20.69  20.73  21.71  22.36  22.62  22.90
         23.09  25.15  26.18  26.49  26.62  27.33  27.57  29.06  29.59  31.49
         31.72  31.74  32.31  32.37  32.65  32.74  33.23  34.03  34.15  35.18
         35.36  36.31  36.37  36.99  37.17  37.81  37.91  38.41  38.59  38.74
         39.05  39.41  39.59  40.18  40.43  40.64  41.39  41.62  41.78  42.72
         43.31  44.00  44.04  44.49  45.69  45.88  46.15  47.08  47.96  48.53
         48.68  49.29  50.75  52.15  52.92  54.15  56.03  59.71  60.42  60.53
         61.38  61.74  62.23  64.01  64.13  67.00  67.72  68.26  69.97  72.20
         72.43  72.99  74.72  75.44  75.83  76.88  77.21  78.94  80.35  80.53
         81.43  95.78  96.65  99.14 100.96 114.40 117.97 120.39
 360  2 -33.41 -33.41 -33.38 -33.25 -33.19 -33.16 -33.13 -33.05 -33.05 -33.02
        -32.95 -32.95 -23.87 -23.78 -23.70 -23.49 -23.17 -23.16 -23.09 -11.30
        -11.26 -11.26 -10.68 -10.56 -10.45 -10.43 -10.16 -10.14  -9.71  -9.69
         -9.50  -9.18  -9.17  -9.01  -8.89  -8.77  -8.43  -7.69  -7.68  -7.49
         -4.44  -3.50  -3.45  -3.33  -3.02  -2.94  -2.85  -2.47  -2.44  -1.52
         -0.91  -0.89  -0.68  -0.49  -0.48   0.06   0.27   0.33   0.95   1.01
          2.31   2.70   2.80   3.21   4.70   5.19   5.65   5.66   7.26   8.55
          8.62   9.77  10.57  11.17  11.72  11.91  12.39  12.74  13.30  13.66
         13.98  14.92  14.96  15.32  15.40  15.68  15.76  15.84  16.89  16.91
         17.53  17.81  18.13  20.30  20.69  20.73  21.71  22.36  22.62  22.90
         23.09  25.15  26.18  26.49  26.62  27.33  27.57  29.06  29.59  31.49
         31.72  31.74  32.31  32.37  32.65  32.74  33.23  34.03  34.15  35.18
         35.36  36.31  36.37  36.99  37.17  37.81  37.91  38.41  38.59  38.74
         39.05  39.41  39.59  40.18  40.43  40.64  41.39  41.62  41.78  42.72
         43.31  44.00  44.04  44.49  45.69  45.88  46.15  47.08  47.96  48.53
         48.68  49.29  50.75  52.15  52.92  54.15  56.03  59.71  60.42  60.53
         61.38  61.74  62.23  64.01  64.13  67.00  67.72  68.26  69.97  72.20
         72.43  72.99  74.72  75.44  75.83  76.88  77.21  78.94  80.35  80.53
         81.43  95.78  96.65  99.14 100.96 114.40 117.97 120.39
 361  1 -33.39 -33.38 -33.32 -33.30 -33.20 -33.19 -33.14 -33.05 -33.05 -33.04
        -32.95 -32.95 -23.83 -23.74 -23.60 -23.57 -23.21 -23.20 -23.11 -11.35
        -11.31 -11.30 -10.69 -10.50 -10.46 -10.31 -10.14 -10.07  -9.74  -9.74
         -9.50  -9.34  -9.19  -9.11  -8.91  -8.76  -8.40  -7.61  -7.60  -7.40
         -4.46  -3.52  -3.48  -3.35  -3.02  -2.94  -2.82  -2.39  -2.37  -1.60
         -0.82  -0.79  -0.42  -0.36  -0.36  -0.24   0.07   0.10   0.93   0.99
          2.37   2.85   2.87   3.31   4.86   5.29   5.93   5.94   7.05   8.11
          8.20   9.38  10.50  11.12  11.73  11.88  12.42  12.78  13.39  13.72
         14.27  14.91  15.08  15.37  15.60  15.94  15.95  16.07  16.28  16.47
         17.26  17.92  18.47  20.10  21.11  21.13  22.33  23.18  23.70  23.82
         23.87  24.45  25.35  25.48  25.85  27.47  27.67  29.22  29.73  31.77
         32.33  32.39  32.41  32.87  32.92  33.14  33.29  34.13  34.35  34.76
         35.03  35.58  35.60  37.24  37.46  37.64  38.07  38.52  38.52  38.55
         39.03  39.36  39.49  39.80  40.07  40.67  41.47  41.80  41.94  42.70
         42.84  43.60  43.88  44.35  45.53  46.03  46.50  47.23  47.82  47.92
         48.59  49.31  51.71  51.76  52.44  52.94  55.89  60.89  61.17  61.46
         61.72  62.33  62.79  64.54  66.69  67.19  68.20  70.93  72.08  72.10
         75.03  75.40  75.79  76.18  77.47  78.09  78.60  79.21  82.55  82.77
         83.05  97.14  98.30 100.75 103.34 117.99 120.50 121.71
 361  2 -33.39 -33.38 -33.32 -33.30 -33.20 -33.19 -33.14 -33.05 -33.05 -33.04
        -32.95 -32.95 -23.83 -23.74 -23.60 -23.57 -23.21 -23.20 -23.11 -11.35
        -11.31 -11.30 -10.69 -10.50 -10.46 -10.31 -10.14 -10.07  -9.74  -9.74
         -9.50  -9.34  -9.19  -9.11  -8.91  -8.76  -8.40  -7.61  -7.60  -7.40
         -4.46  -3.52  -3.48  -3.35  -3.02  -2.94  -2.82  -2.39  -2.37  -1.60
         -0.82  -0.79  -0.42  -0.36  -0.36  -0.24   0.07   0.10   0.93   0.99
          2.37   2.85   2.87   3.31   4.86   5.29   5.93   5.94   7.05   8.11
          8.20   9.38  10.50  11.12  11.73  11.88  12.42  12.78  13.39  13.72
         14.27  14.91  15.08  15.37  15.60  15.94  15.95  16.07  16.28  16.47
         17.26  17.92  18.47  20.10  21.11  21.13  22.33  23.18  23.70  23.82
         23.87  24.45  25.35  25.48  25.85  27.47  27.67  29.22  29.73  31.77
         32.33  32.39  32.41  32.87  32.92  33.14  33.29  34.13  34.35  34.76
         35.03  35.58  35.60  37.24  37.46  37.64  38.07  38.52  38.52  38.55
         39.03  39.36  39.49  39.80  40.07  40.67  41.47  41.80  41.94  42.70
         42.84  43.60  43.88  44.35  45.53  46.03  46.50  47.23  47.82  47.92
         48.59  49.31  51.71  51.76  52.44  52.94  55.89  60.89  61.17  61.46
         61.72  62.33  62.79  64.54  66.69  67.19  68.20  70.93  72.08  72.10
         75.03  75.40  75.79  76.18  77.47  78.09  78.60  79.21  82.55  82.77
         83.05  97.14  98.30 100.75 103.34 117.99 120.50 121.71
 362  1 -33.41 -33.41 -33.38 -33.25 -33.19 -33.16 -33.13 -33.05 -33.05 -33.02
        -32.95 -32.95 -23.87 -23.78 -23.70 -23.49 -23.17 -23.16 -23.09 -11.30
        -11.26 -11.26 -10.68 -10.56 -10.45 -10.43 -10.16 -10.14  -9.71  -9.69
         -9.50  -9.18  -9.17  -9.01  -8.89  -8.77  -8.43  -7.69  -7.68  -7.49
         -4.44  -3.50  -3.45  -3.33  -3.02  -2.94  -2.85  -2.47  -2.44  -1.52
         -0.91  -0.89  -0.68  -0.49  -0.48   0.06   0.27   0.33   0.95   1.01
          2.31   2.70   2.80   3.21   4.70   5.19   5.65   5.66   7.26   8.55
          8.62   9.77  10.57  11.17  11.72  11.91  12.39  12.74  13.30  13.66
         13.98  14.92  14.96  15.32  15.40  15.68  15.76  15.84  16.89  16.91
         17.53  17.81  18.13  20.30  20.69  20.73  21.71  22.36  22.62  22.90
         23.09  25.15  26.18  26.49  26.62  27.33  27.57  29.06  29.59  31.49
         31.72  31.74  32.31  32.37  32.65  32.74  33.23  34.03  34.15  35.18
         35.36  36.31  36.37  36.99  37.17  37.81  37.91  38.41  38.59  38.74
         39.05  39.41  39.59  40.18  40.43  40.64  41.39  41.62  41.78  42.72
         43.31  44.00  44.04  44.49  45.69  45.88  46.15  47.08  47.96  48.53
         48.68  49.29  50.75  52.15  52.92  54.15  56.03  59.71  60.42  60.53
         61.38  61.74  62.23  64.01  64.13  67.00  67.72  68.26  69.97  72.20
         72.43  72.99  74.72  75.44  75.83  76.88  77.21  78.94  80.35  80.53
         81.43  95.78  96.65  99.14 100.96 114.40 117.97 120.39
 362  2 -33.41 -33.41 -33.38 -33.25 -33.19 -33.16 -33.13 -33.05 -33.05 -33.02
        -32.95 -32.95 -23.87 -23.78 -23.70 -23.49 -23.17 -23.16 -23.09 -11.30
        -11.26 -11.26 -10.68 -10.56 -10.45 -10.43 -10.16 -10.14  -9.71  -9.69
         -9.50  -9.18  -9.17  -9.01  -8.89  -8.77  -8.43  -7.69  -7.68  -7.49
         -4.44  -3.50  -3.45  -3.33  -3.02  -2.94  -2.85  -2.47  -2.44  -1.52
         -0.91  -0.89  -0.68  -0.49  -0.48   0.06   0.27   0.33   0.95   1.01
          2.31   2.70   2.80   3.21   4.70   5.19   5.65   5.66   7.26   8.55
          8.62   9.77  10.57  11.17  11.72  11.91  12.39  12.74  13.30  13.66
         13.98  14.92  14.96  15.32  15.40  15.68  15.76  15.84  16.89  16.91
         17.53  17.81  18.13  20.30  20.69  20.73  21.71  22.36  22.62  22.90
         23.09  25.15  26.18  26.49  26.62  27.33  27.57  29.06  29.59  31.49
         31.72  31.74  32.31  32.37  32.65  32.74  33.23  34.03  34.15  35.18
         35.36  36.31  36.37  36.99  37.17  37.81  37.91  38.41  38.59  38.74
         39.05  39.41  39.59  40.18  40.43  40.64  41.39  41.62  41.78  42.72
         43.31  44.00  44.04  44.49  45.69  45.88  46.15  47.08  47.96  48.53
         48.68  49.29  50.75  52.15  52.92  54.15  56.03  59.71  60.42  60.53
         61.38  61.74  62.23  64.01  64.13  67.00  67.72  68.26  69.97  72.20
         72.43  72.99  74.72  75.44  75.83  76.88  77.21  78.94  80.35  80.53
         81.43  95.78  96.65  99.14 100.96 114.40 117.97 120.39
 363  1 -33.46 -33.46 -33.43 -33.25 -33.15 -33.12 -33.09 -33.05 -33.05 -32.99
        -32.95 -32.94 -23.94 -23.87 -23.83 -23.44 -23.08 -23.07 -23.04 -11.18
        -11.14 -11.13 -10.68 -10.63 -10.62 -10.42 -10.27 -10.19  -9.63  -9.55
         -9.48  -9.14  -8.90  -8.84  -8.77  -8.77  -8.54  -7.92  -7.92  -7.75
         -4.41  -3.42  -3.38  -3.28  -3.02  -2.95  -2.91  -2.66  -2.63  -1.38
         -1.05  -1.04  -0.93  -0.72  -0.71   0.46   0.60   0.70   1.00   1.07
          2.04   2.43   2.64   2.93   4.40   5.00   5.23   5.24   7.67   9.33
          9.37  10.53  10.65  11.46  11.70  11.99  12.42  12.72  13.10  13.51
         13.60  14.73  14.77  15.08  15.20  15.45  15.52  15.60  16.64  17.81
         17.82  18.19  18.67  19.61  19.78  19.88  20.78  21.20  21.22  21.78
         22.86  25.79  26.73  27.04  27.06  27.71  27.72  28.66  29.14  29.41
         29.83  29.96  30.75  32.77  33.08  33.09  33.30  34.45  34.58  35.78
         36.41  36.65  37.05  37.32  37.56  37.62  38.30  38.37  38.83  38.92
         39.08  39.78  40.04  40.69  40.82  40.96  41.44  41.45  41.95  42.85
         43.21  44.13  44.34  44.58  45.59  45.77  46.92  47.27  48.29  49.08
         49.56  49.91  50.39  53.18  53.71  55.56  56.34  58.36  58.67  59.28
         60.77  61.16  61.65  62.29  63.12  64.10  64.13  65.31  66.76  67.40
         68.34  69.30  70.38  71.02  73.49  73.74  75.35  75.69  78.83  80.04
         82.87  88.59  89.15  90.03  91.27 112.63 114.61 117.20
 363  2 -33.46 -33.46 -33.43 -33.25 -33.15 -33.12 -33.09 -33.05 -33.05 -32.99
        -32.95 -32.94 -23.94 -23.87 -23.83 -23.44 -23.08 -23.07 -23.04 -11.18
        -11.14 -11.13 -10.68 -10.63 -10.62 -10.42 -10.27 -10.19  -9.63  -9.55
         -9.48  -9.14  -8.90  -8.84  -8.77  -8.77  -8.54  -7.92  -7.92  -7.75
         -4.41  -3.42  -3.38  -3.28  -3.02  -2.95  -2.91  -2.66  -2.63  -1.38
         -1.05  -1.04  -0.93  -0.72  -0.71   0.46   0.60   0.70   1.00   1.07
          2.04   2.43   2.64   2.93   4.40   5.00   5.23   5.24   7.67   9.33
          9.37  10.53  10.65  11.46  11.70  11.99  12.42  12.72  13.10  13.51
         13.60  14.73  14.77  15.08  15.20  15.45  15.52  15.60  16.64  17.81
         17.82  18.19  18.67  19.61  19.78  19.88  20.78  21.20  21.22  21.78
         22.86  25.79  26.73  27.04  27.06  27.71  27.72  28.66  29.14  29.41
         29.83  29.96  30.75  32.77  33.08  33.09  33.30  34.45  34.58  35.78
         36.41  36.65  37.05  37.32  37.56  37.62  38.30  38.37  38.83  38.92
         39.08  39.78  40.04  40.69  40.82  40.96  41.44  41.45  41.95  42.85
         43.21  44.13  44.34  44.58  45.59  45.77  46.92  47.27  48.29  49.08
         49.56  49.91  50.39  53.18  53.71  55.56  56.34  58.36  58.67  59.28
         60.77  61.16  61.65  62.29  63.12  64.10  64.13  65.31  66.76  67.40
         68.34  69.30  70.38  71.02  73.49  73.74  75.35  75.69  78.83  80.04
         82.87  88.59  89.15  90.03  91.27 112.63 114.61 117.20
 364  1 -33.50 -33.50 -33.48 -33.27 -33.09 -33.08 -33.06 -33.05 -33.05 -32.96
        -32.94 -32.94 -24.00 -23.96 -23.93 -23.41 -23.00 -23.00 -22.99 -11.03
        -11.00 -10.96 -10.80 -10.78 -10.57 -10.37 -10.35 -10.23  -9.49  -9.44
         -9.42  -9.14  -8.84  -8.77  -8.67  -8.59  -8.53  -8.20  -8.19  -8.08
         -4.38  -3.30  -3.28  -3.22  -3.02  -2.97  -2.95  -2.87  -2.84  -1.28
         -1.13  -1.11  -1.06  -0.96  -0.95   0.80   0.89   1.00   1.05   1.13
          1.63   2.25   2.41   2.56   4.16   4.88   4.98   4.98   7.97   9.90
          9.91  10.41  11.34  11.77  11.98  12.34  12.54  12.84  12.93  13.33
         13.37  14.69  14.70  14.95  15.08  15.33  15.37  15.44  15.68  18.36
         18.53  18.78  18.87  19.13  19.21  19.48  20.04  20.27  20.34  20.80
         23.47  25.85  26.53  26.59  27.23  27.25  27.54  27.79  28.20  28.44
         28.50  28.86  28.95  32.78  33.39  33.40  33.55  34.53  34.64  35.45
         37.37  37.57  37.93  37.98  38.31  38.52  38.67  39.04  39.13  39.19
         39.44  39.97  40.67  40.69  41.08  41.21  41.68  41.97  42.11  42.68
         43.19  43.94  44.08  44.69  45.42  45.50  47.04  47.43  49.82  50.71
         50.76  52.50  52.63  55.01  55.59  56.77  57.03  57.95  57.96  59.49
         59.83  60.37  61.72  62.21  62.26  62.84  63.15  63.57  63.64  64.69
         65.24  65.95  66.88  69.85  71.97  72.03  73.13  74.30  76.29  76.88
         79.26  79.99  80.31  80.65  82.73 112.04 113.00 115.37
 364  2 -33.50 -33.50 -33.48 -33.27 -33.09 -33.08 -33.06 -33.05 -33.05 -32.96
        -32.94 -32.94 -24.00 -23.96 -23.93 -23.41 -23.00 -23.00 -22.99 -11.03
        -11.00 -10.96 -10.80 -10.78 -10.57 -10.37 -10.35 -10.23  -9.49  -9.44
         -9.42  -9.14  -8.84  -8.77  -8.67  -8.59  -8.53  -8.20  -8.19  -8.08
         -4.38  -3.30  -3.28  -3.22  -3.02  -2.97  -2.95  -2.87  -2.84  -1.28
         -1.13  -1.11  -1.06  -0.96  -0.95   0.80   0.89   1.00   1.05   1.13
          1.63   2.25   2.41   2.56   4.16   4.88   4.98   4.98   7.97   9.90
          9.91  10.41  11.34  11.77  11.98  12.34  12.54  12.84  12.93  13.33
         13.37  14.69  14.70  14.95  15.08  15.33  15.37  15.44  15.68  18.36
         18.53  18.78  18.87  19.13  19.21  19.48  20.04  20.27  20.34  20.80
         23.47  25.85  26.53  26.59  27.23  27.25  27.54  27.79  28.20  28.44
         28.50  28.86  28.95  32.78  33.39  33.40  33.55  34.53  34.64  35.45
         37.37  37.57  37.93  37.98  38.31  38.52  38.67  39.04  39.13  39.19
         39.44  39.97  40.67  40.69  41.08  41.21  41.68  41.97  42.11  42.68
         43.19  43.94  44.08  44.69  45.42  45.50  47.04  47.43  49.82  50.71
         50.76  52.50  52.63  55.01  55.59  56.77  57.03  57.95  57.96  59.49
         59.83  60.37  61.72  62.21  62.26  62.84  63.15  63.57  63.64  64.69
         65.24  65.95  66.88  69.85  71.97  72.03  73.13  74.30  76.29  76.88
         79.26  79.99  80.31  80.65  82.73 112.04 113.00 115.37
 365  1 -33.52 -33.52 -33.51 -33.28 -33.06 -33.06 -33.05 -33.05 -33.05 -32.94
        -32.94 -32.94 -24.03 -24.00 -24.00 -23.40 -22.96 -22.96 -22.95 -10.92
        -10.92 -10.86 -10.86 -10.86 -10.46 -10.35 -10.35 -10.27  -9.38  -9.35
         -9.35  -9.17  -8.84  -8.84  -8.72  -8.42  -8.41  -8.41  -8.35  -8.35
         -4.37  -3.20  -3.20  -3.17  -3.02  -3.02  -2.99  -2.98  -2.98  -1.25
         -1.16  -1.16  -1.11  -1.11  -1.09   1.05   1.05   1.09   1.15   1.15
          1.40   2.14   2.24   2.24   4.05   4.84   4.88   4.88   8.10  10.11
         10.11  10.24  11.91  11.91  12.14  12.67  12.81  12.81  13.05  13.18
         13.18  14.88  14.88  14.92  15.03  15.03  15.24  15.34  15.34  17.92
         18.08  18.08  19.47  19.54  19.54  19.83  19.83  20.05  20.27  20.27
         23.83  25.88  25.88  26.21  26.32  26.32  26.35  27.62  27.62  28.17
         28.50  28.50  28.69  32.67  33.48  33.48  33.55  34.42  34.42  34.55
         38.39  38.39  38.48  38.82  38.82  38.95  38.98  39.37  39.37  39.68
         39.86  39.86  40.86  40.90  40.90  41.49  41.49  42.05  42.22  42.22
         43.51  43.71  43.71  44.87  45.03  45.03  47.21  47.21  51.26  52.80
         52.80  53.13  55.36  56.63  56.63  57.47  59.15  60.64  60.78  60.78
         61.76  61.97  61.97  62.34  62.62  62.62  62.90  62.90  63.46  63.46
         63.93  65.01  65.01  70.95  71.07  71.07  71.41  71.41  72.76  72.76
         73.33  73.96  74.08  74.08  77.83 112.27 112.27 113.62
 365  2 -33.52 -33.52 -33.51 -33.28 -33.06 -33.06 -33.05 -33.05 -33.05 -32.94
        -32.94 -32.94 -24.03 -24.00 -24.00 -23.40 -22.96 -22.96 -22.95 -10.92
        -10.92 -10.86 -10.86 -10.86 -10.46 -10.35 -10.35 -10.27  -9.38  -9.35
         -9.35  -9.17  -8.84  -8.84  -8.72  -8.42  -8.41  -8.41  -8.35  -8.35
         -4.37  -3.20  -3.20  -3.17  -3.02  -3.02  -2.99  -2.98  -2.98  -1.25
         -1.16  -1.16  -1.11  -1.11  -1.09   1.05   1.05   1.09   1.15   1.15
          1.40   2.14   2.24   2.24   4.05   4.84   4.88   4.88   8.10  10.11
         10.11  10.24  11.91  11.91  12.14  12.67  12.81  12.81  13.05  13.18
         13.18  14.88  14.88  14.92  15.03  15.03  15.24  15.34  15.34  17.92
         18.08  18.08  19.47  19.54  19.54  19.83  19.83  20.05  20.27  20.27
         23.83  25.88  25.88  26.21  26.32  26.32  26.35  27.62  27.62  28.17
         28.50  28.50  28.69  32.67  33.48  33.48  33.55  34.42  34.42  34.55
         38.39  38.39  38.48  38.82  38.82  38.95  38.98  39.37  39.37  39.68
         39.86  39.86  40.86  40.90  40.90  41.49  41.49  42.05  42.22  42.22
         43.51  43.71  43.71  44.87  45.03  45.03  47.21  47.21  51.26  52.80
         52.80  53.13  55.36  56.63  56.63  57.47  59.15  60.64  60.78  60.78
         61.76  61.97  61.97  62.34  62.62  62.62  62.90  62.90  63.46  63.46
         63.93  65.01  65.01  70.95  71.07  71.07  71.41  71.41  72.76  72.76
         73.33  73.96  74.08  74.08  77.83 112.27 112.27 113.62
siesta: Fermi energy =      -4.105035 eV

siesta: Program's energy decomposition (eV):
siesta: Ebs     =     -1535.241538
siesta: Eions   =      7557.999482
siesta: Ena     =       624.163474
siesta: Ekin    =      3559.854877
siesta: Enl     =     -1619.358093
siesta: Eso     =         0.000000
siesta: Eldau   =         0.000000
siesta: DEna    =      -193.472625
siesta: DUscf   =        34.825799
siesta: DUext   =         0.000000
siesta: Exc     =     -1487.126527
siesta: eta*DQ  =         0.000000
siesta: Emadel  =         0.000000
siesta: Emeta   =         0.000000
siesta: Emolmec =         0.000000
siesta: Ekinion =         0.000000
siesta: Eharris =     -6639.112578
siesta: Etot    =     -6639.112578
siesta: FreeEng =     -6639.112578

siesta: Final energy (eV):
siesta:  Band Struct. =   -1535.241538
siesta:       Kinetic =    3559.854877
siesta:       Hartree =    1258.433549
siesta:       Eldau   =       0.000000
siesta:       Eso     =       0.000000
siesta:    Ext. field =       0.000000
siesta:   Exch.-corr. =   -1487.126527
siesta:  Ion-electron =   -6039.987319
siesta:       Ion-ion =   -3930.287158
siesta:       Ekinion =       0.000000
siesta:         Total =   -6639.112578
siesta:         Fermi =      -4.105035

siesta: Atomic forces (eV/Ang):
siesta:      1    0.000000    0.000000    0.000000
siesta:      2   -0.000000   -0.000000   -0.000000
siesta:      3   -0.000000   -0.000000    0.000000
siesta:      4    0.000000    0.000000   -0.000000
siesta:      5   -0.000000   -0.000000   -0.000000
siesta:      6    0.000000   -0.000000    0.000000
siesta:      7   -0.000000   -0.000000   -0.000000
siesta:      8   -0.000000    0.000000    0.000000
siesta:      9   -0.145644   -0.145644   -0.145644
siesta:     10   -0.145644    0.145644    0.145644
siesta:     11    0.145644   -0.145644    0.145644
siesta:     12    0.145644    0.145644   -0.145644
siesta: ----------------------------------------
siesta:    Tot    0.000000    0.000000    0.000000

siesta: Stress tensor (static) (eV/Ang**3):
siesta:     0.014930   -0.000000   -0.000000
siesta:    -0.000000    0.014930   -0.000000
siesta:    -0.000000   -0.000000    0.014930

siesta: Cell volume =        138.767607 Ang**3

siesta: Pressure (static):
siesta:                Solid            Molecule  Units
siesta:          -0.00016261         -0.00022179  Ry/Bohr**3
siesta:          -0.01492997         -0.02036372  eV/Ang**3
siesta:         -23.92070610        -32.62662887  kBar
(Free)E+ p_basis*V_orbitals  =       -6634.106539
(Free)Eharris+ p_basis*V_orbitals  =       -6634.106539

siesta: Total spin polarization (Qup-Qdown) =   -0.000000
>> End of run:  25-JUL-2019  10:36:30
Job completed
