ATOMS
  -8          1.29430327          1.29430327          1.29430327
   8          3.88290982          3.88290982          3.88290982
   8          3.88290982          3.88290982          1.29430327
   8          1.29430327          1.29430327          3.88290982
   8          3.88290982          1.29430327          3.88290982
   8          1.29430327          3.88290982          1.29430327
   8          1.29430327          3.88290982          3.88290982
   8          3.88290982          1.29430327          1.29430327
  40          0.00000000          0.00000000          0.00000000
  40          0.00000000          2.58860655          2.58860655
  40          2.58860655          0.00000000          2.58860655
  40          2.58860655          2.58860655          0.00000000
BEGIN_BLOCK_DATAGRID_3D
 DATA_from:ZrO2-G.RHO
 BEGIN_DATAGRID_3D_RHO:spin_1
    10    10    10
  0.0000000E+00  0.0000000E+00  0.0000000E+00
  5.1772130E+00  0.0000000E+00  0.0000000E+00
  0.0000000E+00  5.1772130E+00  0.0000000E+00
  0.0000000E+00  0.0000000E+00  5.1772130E+00
 -5.41224E+00 -3.74307E+00 -1.57331E+00 -7.19722E-01 -5.40626E-01 -5.39159E-01
 -6.96904E-01 -1.56986E+00 -3.74352E+00 -5.41224E+00 -3.74307E+00 -2.83237E+00
 -1.24265E+00 -7.31471E-01 -6.03459E-01 -5.78192E-01 -7.33529E-01 -1.25096E+00
 -2.84047E+00 -3.74307E+00 -1.57331E+00 -1.24265E+00 -9.22466E-01 -8.63026E-01
 -9.31216E-01 -9.25871E-01 -9.20115E-01 -1.00556E+00 -1.24981E+00 -1.57331E+00
 -7.19722E-01 -7.31471E-01 -8.63026E-01 -1.39019E+00 -2.45402E+00 -2.45507E+00
 -1.39546E+00 -9.20115E-01 -7.33992E-01 -7.19722E-01 -5.40626E-01 -6.03459E-01
 -9.31216E-01 -2.45402E+00 -4.25420E+00 -4.26257E+00 -2.45494E+00 -9.23029E-01
 -5.70460E-01 -5.40626E-01 -5.39159E-01 -5.78192E-01 -9.25871E-01 -2.45507E+00
 -4.26257E+00 -4.25566E+00 -2.44718E+00 -9.20430E-01 -5.66401E-01 -5.39159E-01
 -6.96904E-01 -7.33529E-01 -9.20115E-01 -1.39546E+00 -2.45494E+00 -2.44718E+00
 -1.38861E+00 -9.13365E-01 -7.28794E-01 -6.96904E-01 -1.56986E+00 -1.25096E+00
 -1.00556E+00 -9.20115E-01 -9.23029E-01 -9.20430E-01 -9.13365E-01 -9.97302E-01
 -1.24608E+00 -1.56986E+00 -3.74352E+00 -2.84047E+00 -1.24981E+00 -7.33992E-01
 -5.70460E-01 -5.66401E-01 -7.28794E-01 -1.24608E+00 -2.82663E+00 -3.74352E+00
 -5.41224E+00 -3.74307E+00 -1.57331E+00 -7.19722E-01 -5.40626E-01 -5.39159E-01
 -6.96904E-01 -1.56986E+00 -3.74352E+00 -5.41224E+00 -3.74307E+00 -2.83237E+00
 -1.24265E+00 -7.31471E-01 -6.03459E-01 -5.78192E-01 -7.33529E-01 -1.25096E+00
 -2.84047E+00 -3.74307E+00 -2.83237E+00 -2.12332E+00 -1.07888E+00 -7.58043E-01
 -6.55705E-01 -6.56489E-01 -9.12356E-01 -1.32463E+00 -2.09030E+00 -2.83237E+00
 -1.24265E+00 -1.07888E+00 -8.25172E-01 -8.01323E-01 -9.15395E-01 -9.56964E-01
 -1.42124E+00 -1.82464E+00 -1.32556E+00 -1.24265E+00 -7.31471E-01 -7.58043E-01
 -8.01323E-01 -1.16875E+00 -1.83834E+00 -1.81222E+00 -1.52816E+00 -1.42046E+00
 -9.14231E-01 -7.31471E-01 -6.03459E-01 -6.55705E-01 -9.15395E-01 -1.83834E+00
 -3.25490E+00 -3.26713E+00 -1.81605E+00 -9.41669E-01 -6.40554E-01 -6.03458E-01
 -5.78192E-01 -6.56489E-01 -9.56964E-01 -1.81222E+00 -3.26713E+00 -3.26996E+00
 -1.81109E+00 -9.39095E-01 -6.38111E-01 -5.78192E-01 -7.33529E-01 -9.12356E-01
 -1.42124E+00 -1.52816E+00 -1.81605E+00 -1.81109E+00 -1.51970E+00 -1.40952E+00
 -9.06416E-01 -7.33529E-01 -1.25096E+00 -1.32463E+00 -1.82464E+00 -1.42046E+00
 -9.41669E-01 -9.39095E-01 -1.40952E+00 -1.81098E+00 -1.31834E+00 -1.25096E+00
 -2.84047E+00 -2.09030E+00 -1.32556E+00 -9.14231E-01 -6.40554E-01 -6.38111E-01
 -9.06416E-01 -1.31834E+00 -2.08621E+00 -2.84047E+00 -3.74307E+00 -2.83237E+00
 -1.24265E+00 -7.31471E-01 -6.03458E-01 -5.78192E-01 -7.33529E-01 -1.25096E+00
 -2.84047E+00 -3.74307E+00 -1.57331E+00 -1.24265E+00 -9.22466E-01 -8.63026E-01
 -9.31216E-01 -9.25871E-01 -9.20115E-01 -1.00556E+00 -1.24981E+00 -1.57331E+00
 -1.24265E+00 -1.07888E+00 -8.25172E-01 -8.01323E-01 -9.15395E-01 -9.56964E-01
 -1.42124E+00 -1.82464E+00 -1.32556E+00 -1.24265E+00 -9.22466E-01 -8.25172E-01
 -6.90335E-01 -7.19666E-01 -8.36177E-01 -1.07060E+00 -4.09288E+00 -7.12944E+00
 -1.82959E+00 -9.22466E-01 -8.63026E-01 -8.01323E-01 -7.19666E-01 -8.30002E-01
 -1.03225E+00 -1.16991E+00 -2.59530E+00 -4.08389E+00 -1.42343E+00 -8.63026E-01
 -9.31216E-01 -9.15395E-01 -8.36177E-01 -1.03225E+00 -1.38975E+00 -1.38451E+00
 -1.15235E+00 -1.04855E+00 -9.42221E-01 -9.31216E-01 -9.25871E-01 -9.56964E-01
 -1.07060E+00 -1.16991E+00 -1.38451E+00 -1.38330E+00 -1.15077E+00 -1.04489E+00
 -9.40298E-01 -9.25871E-01 -9.20115E-01 -1.42124E+00 -4.09288E+00 -2.59530E+00
 -1.15235E+00 -1.15077E+00 -2.57740E+00 -4.06591E+00 -1.41223E+00 -9.20115E-01
 -1.00556E+00 -1.82464E+00 -7.12944E+00 -4.08389E+00 -1.04855E+00 -1.04489E+00
 -4.06591E+00 -7.10184E+00 -1.81387E+00 -1.00556E+00 -1.24981E+00 -1.32556E+00
 -1.82959E+00 -1.42343E+00 -9.42221E-01 -9.40298E-01 -1.41223E+00 -1.81387E+00
 -1.32118E+00 -1.24981E+00 -1.57331E+00 -1.24265E+00 -9.22466E-01 -8.63026E-01
 -9.31216E-01 -9.25871E-01 -9.20115E-01 -1.00556E+00 -1.24981E+00 -1.57331E+00
 -7.19722E-01 -7.31471E-01 -8.63026E-01 -1.39019E+00 -2.45402E+00 -2.45507E+00
 -1.39546E+00 -9.20115E-01 -7.33992E-01 -7.19722E-01 -7.31471E-01 -7.58043E-01
 -8.01323E-01 -1.16875E+00 -1.83834E+00 -1.81222E+00 -1.52816E+00 -1.42046E+00
 -9.14231E-01 -7.31471E-01 -8.63026E-01 -8.01323E-01 -7.19666E-01 -8.30002E-01
 -1.03225E+00 -1.16991E+00 -2.59530E+00 -4.08389E+00 -1.42343E+00 -8.63026E-01
 -1.39019E+00 -1.16875E+00 -8.30002E-01 -7.29832E-01 -7.78172E-01 -8.64640E-01
 -1.74361E+00 -2.59150E+00 -1.52940E+00 -1.39019E+00 -2.45402E+00 -1.83834E+00
 -1.03225E+00 -7.78172E-01 -7.11867E-01 -6.92997E-01 -8.44704E-01 -1.15261E+00
 -1.81258E+00 -2.45402E+00 -2.45507E+00 -1.81222E+00 -1.16991E+00 -8.64640E-01
 -6.92997E-01 -6.80441E-01 -8.42068E-01 -1.14992E+00 -1.81423E+00 -2.45507E+00
 -1.39546E+00 -1.52816E+00 -2.59530E+00 -1.74361E+00 -8.44704E-01 -8.42068E-01
 -1.73089E+00 -2.57653E+00 -1.52168E+00 -1.39546E+00 -9.20115E-01 -1.42046E+00
 -4.08389E+00 -2.59150E+00 -1.15261E+00 -1.14992E+00 -2.57653E+00 -4.06484E+00
 -1.41142E+00 -9.20115E-01 -7.33992E-01 -9.14231E-01 -1.42343E+00 -1.52940E+00
 -1.81258E+00 -1.81423E+00 -1.52168E+00 -1.41142E+00 -9.07858E-01 -7.33992E-01
 -7.19722E-01 -7.31471E-01 -8.63026E-01 -1.39019E+00 -2.45402E+00 -2.45507E+00
 -1.39546E+00 -9.20115E-01 -7.33992E-01 -7.19722E-01 -5.40626E-01 -6.03459E-01
 -9.31216E-01 -2.45402E+00 -4.25420E+00 -4.26257E+00 -2.45494E+00 -9.23029E-01
 -5.70460E-01 -5.40626E-01 -6.03459E-01 -6.55705E-01 -9.15395E-01 -1.83834E+00
 -3.25490E+00 -3.26713E+00 -1.81605E+00 -9.41669E-01 -6.40554E-01 -6.03458E-01
 -9.31216E-01 -9.15395E-01 -8.36177E-01 -1.03225E+00 -1.38975E+00 -1.38451E+00
 -1.15235E+00 -1.04855E+00 -9.42221E-01 -9.31216E-01 -2.45402E+00 -1.83834E+00
 -1.03225E+00 -7.78172E-01 -7.11867E-01 -6.92997E-01 -8.44704E-01 -1.15261E+00
 -1.81258E+00 -2.45402E+00 -4.25420E+00 -3.25490E+00 -1.38975E+00 -7.11867E-01
 -5.74226E-01 -5.18302E-01 -6.84765E-01 -1.38497E+00 -3.27086E+00 -4.25420E+00
 -4.26257E+00 -3.26713E+00 -1.38451E+00 -6.92997E-01 -5.18302E-01 -5.06396E-01
 -6.81714E-01 -1.37961E+00 -3.26588E+00 -4.26257E+00 -2.45494E+00 -1.81605E+00
 -1.15235E+00 -8.44704E-01 -6.84765E-01 -6.81714E-01 -8.38053E-01 -1.14412E+00
 -1.80440E+00 -2.45494E+00 -9.23029E-01 -9.41669E-01 -1.04855E+00 -1.15261E+00
 -1.38497E+00 -1.37961E+00 -1.14412E+00 -1.03928E+00 -9.36420E-01 -9.23029E-01
 -5.70460E-01 -6.40554E-01 -9.42221E-01 -1.81258E+00 -3.27086E+00 -3.26588E+00
 -1.80440E+00 -9.36420E-01 -6.37704E-01 -5.70460E-01 -5.40626E-01 -6.03458E-01
 -9.31216E-01 -2.45402E+00 -4.25420E+00 -4.26257E+00 -2.45494E+00 -9.23029E-01
 -5.70460E-01 -5.40626E-01 -5.39159E-01 -5.78192E-01 -9.25871E-01 -2.45507E+00
 -4.26257E+00 -4.25566E+00 -2.44718E+00 -9.20430E-01 -5.66401E-01 -5.39159E-01
 -5.78192E-01 -6.56489E-01 -9.56964E-01 -1.81222E+00 -3.26713E+00 -3.26996E+00
 -1.81109E+00 -9.39095E-01 -6.38111E-01 -5.78192E-01 -9.25871E-01 -9.56964E-01
 -1.07060E+00 -1.16991E+00 -1.38451E+00 -1.38330E+00 -1.15077E+00 -1.04489E+00
 -9.40298E-01 -9.25871E-01 -2.45507E+00 -1.81222E+00 -1.16991E+00 -8.64640E-01
 -6.92997E-01 -6.80441E-01 -8.42068E-01 -1.14992E+00 -1.81423E+00 -2.45507E+00
 -4.26257E+00 -3.26713E+00 -1.38451E+00 -6.92997E-01 -5.18302E-01 -5.06396E-01
 -6.81714E-01 -1.37961E+00 -3.26588E+00 -4.26257E+00 -4.25566E+00 -3.26996E+00
 -1.38330E+00 -6.80441E-01 -5.06396E-01 -5.00242E-01 -6.80972E-01 -1.38334E+00
 -3.25182E+00 -4.25566E+00 -2.44718E+00 -1.81109E+00 -1.15077E+00 -8.42068E-01
 -6.81714E-01 -6.80972E-01 -8.36455E-01 -1.14296E+00 -1.81121E+00 -2.44718E+00
 -9.20430E-01 -9.39095E-01 -1.04489E+00 -1.14992E+00 -1.37961E+00 -1.38334E+00
 -1.14296E+00 -1.03687E+00 -9.35141E-01 -9.20430E-01 -5.66401E-01 -6.38111E-01
 -9.40298E-01 -1.81423E+00 -3.26588E+00 -3.25182E+00 -1.81121E+00 -9.35141E-01
 -6.36594E-01 -5.66401E-01 -5.39159E-01 -5.78192E-01 -9.25871E-01 -2.45507E+00
 -4.26257E+00 -4.25566E+00 -2.44718E+00 -9.20430E-01 -5.66401E-01 -5.39159E-01
 -6.96904E-01 -7.33529E-01 -9.20115E-01 -1.39546E+00 -2.45494E+00 -2.44718E+00
 -1.38861E+00 -9.13365E-01 -7.28794E-01 -6.96904E-01 -7.33529E-01 -9.12356E-01
 -1.42124E+00 -1.52816E+00 -1.81605E+00 -1.81109E+00 -1.51970E+00 -1.40952E+00
 -9.06416E-01 -7.33529E-01 -9.20115E-01 -1.42124E+00 -4.09288E+00 -2.59530E+00
 -1.15235E+00 -1.15077E+00 -2.57740E+00 -4.06591E+00 -1.41223E+00 -9.20115E-01
 -1.39546E+00 -1.52816E+00 -2.59530E+00 -1.74361E+00 -8.44704E-01 -8.42068E-01
 -1.73089E+00 -2.57653E+00 -1.52168E+00 -1.39546E+00 -2.45494E+00 -1.81605E+00
 -1.15235E+00 -8.44704E-01 -6.84765E-01 -6.81714E-01 -8.38053E-01 -1.14412E+00
 -1.80440E+00 -2.45494E+00 -2.44718E+00 -1.81109E+00 -1.15077E+00 -8.42068E-01
 -6.81714E-01 -6.80972E-01 -8.36455E-01 -1.14296E+00 -1.81121E+00 -2.44718E+00
 -1.38861E+00 -1.51970E+00 -2.57740E+00 -1.73089E+00 -8.38053E-01 -8.36455E-01
 -1.73138E+00 -2.57596E+00 -1.51095E+00 -1.38861E+00 -9.13365E-01 -1.40952E+00
 -4.06591E+00 -2.57653E+00 -1.14412E+00 -1.14296E+00 -2.57596E+00 -4.07068E+00
 -1.40813E+00 -9.13365E-01 -7.28794E-01 -9.06416E-01 -1.41223E+00 -1.52168E+00
 -1.80440E+00 -1.81121E+00 -1.51095E+00 -1.40813E+00 -9.03791E-01 -7.28794E-01
 -6.96904E-01 -7.33529E-01 -9.20115E-01 -1.39546E+00 -2.45494E+00 -2.44718E+00
 -1.38861E+00 -9.13365E-01 -7.28794E-01 -6.96904E-01 -1.56986E+00 -1.25096E+00
 -1.00556E+00 -9.20115E-01 -9.23029E-01 -9.20430E-01 -9.13365E-01 -9.97302E-01
 -1.24608E+00 -1.56986E+00 -1.25096E+00 -1.32463E+00 -1.82464E+00 -1.42046E+00
 -9.41669E-01 -9.39095E-01 -1.40952E+00 -1.81098E+00 -1.31834E+00 -1.25096E+00
 -1.00556E+00 -1.82464E+00 -7.12944E+00 -4.08389E+00 -1.04855E+00 -1.04489E+00
 -4.06591E+00 -7.10184E+00 -1.81387E+00 -1.00556E+00 -9.20115E-01 -1.42046E+00
 -4.08389E+00 -2.59150E+00 -1.15261E+00 -1.14992E+00 -2.57653E+00 -4.06484E+00
 -1.41142E+00 -9.20115E-01 -9.23029E-01 -9.41669E-01 -1.04855E+00 -1.15261E+00
 -1.38497E+00 -1.37961E+00 -1.14412E+00 -1.03928E+00 -9.36420E-01 -9.23029E-01
 -9.20430E-01 -9.39095E-01 -1.04489E+00 -1.14992E+00 -1.37961E+00 -1.38334E+00
 -1.14296E+00 -1.03687E+00 -9.35141E-01 -9.20430E-01 -9.13365E-01 -1.40952E+00
 -4.06591E+00 -2.57653E+00 -1.14412E+00 -1.14296E+00 -2.57596E+00 -4.07068E+00
 -1.40813E+00 -9.13365E-01 -9.97302E-01 -1.81098E+00 -7.10184E+00 -4.06484E+00
 -1.03928E+00 -1.03687E+00 -4.07068E+00 -7.10964E+00 -1.81049E+00 -9.97302E-01
 -1.24608E+00 -1.31834E+00 -1.81387E+00 -1.41142E+00 -9.36420E-01 -9.35141E-01
 -1.40813E+00 -1.81049E+00 -1.31210E+00 -1.24608E+00 -1.56986E+00 -1.25096E+00
 -1.00556E+00 -9.20115E-01 -9.23029E-01 -9.20430E-01 -9.13365E-01 -9.97302E-01
 -1.24608E+00 -1.56986E+00 -3.74352E+00 -2.84047E+00 -1.24981E+00 -7.33992E-01
 -5.70460E-01 -5.66401E-01 -7.28794E-01 -1.24608E+00 -2.82663E+00 -3.74352E+00
 -2.84047E+00 -2.09030E+00 -1.32556E+00 -9.14231E-01 -6.40554E-01 -6.38111E-01
 -9.06416E-01 -1.31834E+00 -2.08621E+00 -2.84047E+00 -1.24981E+00 -1.32556E+00
 -1.82959E+00 -1.42343E+00 -9.42221E-01 -9.40298E-01 -1.41223E+00 -1.81387E+00
 -1.32118E+00 -1.24981E+00 -7.33992E-01 -9.14231E-01 -1.42343E+00 -1.52940E+00
 -1.81258E+00 -1.81423E+00 -1.52168E+00 -1.41142E+00 -9.07858E-01 -7.33992E-01
 -5.70460E-01 -6.40554E-01 -9.42221E-01 -1.81258E+00 -3.27086E+00 -3.26588E+00
 -1.80440E+00 -9.36420E-01 -6.37704E-01 -5.70460E-01 -5.66401E-01 -6.38111E-01
 -9.40298E-01 -1.81423E+00 -3.26588E+00 -3.25182E+00 -1.81121E+00 -9.35141E-01
 -6.36594E-01 -5.66401E-01 -7.28794E-01 -9.06416E-01 -1.41223E+00 -1.52168E+00
 -1.80440E+00 -1.81121E+00 -1.51095E+00 -1.40813E+00 -9.03791E-01 -7.28794E-01
 -1.24608E+00 -1.31834E+00 -1.81387E+00 -1.41142E+00 -9.36420E-01 -9.35141E-01
 -1.40813E+00 -1.81049E+00 -1.31210E+00 -1.24608E+00 -2.82663E+00 -2.08621E+00
 -1.32118E+00 -9.07858E-01 -6.37704E-01 -6.36594E-01 -9.03791E-01 -1.31210E+00
 -2.08554E+00 -2.82663E+00 -3.74352E+00 -2.84047E+00 -1.24981E+00 -7.33992E-01
 -5.70460E-01 -5.66401E-01 -7.28794E-01 -1.24608E+00 -2.82663E+00 -3.74352E+00
 -5.41224E+00 -3.74307E+00 -1.57331E+00 -7.19722E-01 -5.40626E-01 -5.39159E-01
 -6.96904E-01 -1.56986E+00 -3.74352E+00 -5.41224E+00 -3.74307E+00 -2.83237E+00
 -1.24265E+00 -7.31471E-01 -6.03458E-01 -5.78192E-01 -7.33529E-01 -1.25096E+00
 -2.84047E+00 -3.74307E+00 -1.57331E+00 -1.24265E+00 -9.22466E-01 -8.63026E-01
 -9.31216E-01 -9.25871E-01 -9.20115E-01 -1.00556E+00 -1.24981E+00 -1.57331E+00
 -7.19722E-01 -7.31471E-01 -8.63026E-01 -1.39019E+00 -2.45402E+00 -2.45507E+00
 -1.39546E+00 -9.20115E-01 -7.33992E-01 -7.19722E-01 -5.40626E-01 -6.03458E-01
 -9.31216E-01 -2.45402E+00 -4.25420E+00 -4.26257E+00 -2.45494E+00 -9.23029E-01
 -5.70460E-01 -5.40626E-01 -5.39159E-01 -5.78192E-01 -9.25871E-01 -2.45507E+00
 -4.26257E+00 -4.25566E+00 -2.44718E+00 -9.20430E-01 -5.66401E-01 -5.39159E-01
 -6.96904E-01 -7.33529E-01 -9.20115E-01 -1.39546E+00 -2.45494E+00 -2.44718E+00
 -1.38861E+00 -9.13365E-01 -7.28794E-01 -6.96904E-01 -1.56986E+00 -1.25096E+00
 -1.00556E+00 -9.20115E-01 -9.23029E-01 -9.20430E-01 -9.13365E-01 -9.97302E-01
 -1.24608E+00 -1.56986E+00 -3.74352E+00 -2.84047E+00 -1.24981E+00 -7.33992E-01
 -5.70460E-01 -5.66401E-01 -7.28794E-01 -1.24608E+00 -2.82663E+00 -3.74352E+00
 -5.41224E+00 -3.74307E+00 -1.57331E+00 -7.19722E-01 -5.40626E-01 -5.39159E-01
 -6.96904E-01 -1.56986E+00 -3.74352E+00 -5.41224E+00
 END_DATAGRID_3D
 BEGIN_DATAGRID_3D_RHO:spin_2
    10    10    10
  0.0000000E+00  0.0000000E+00  0.0000000E+00
  5.1772130E+00  0.0000000E+00  0.0000000E+00
  0.0000000E+00  5.1772130E+00  0.0000000E+00
  0.0000000E+00  0.0000000E+00  5.1772130E+00
 -5.41224E+00 -3.74307E+00 -1.57331E+00 -7.19725E-01 -5.40662E-01 -5.39166E-01
 -6.96880E-01 -1.56986E+00 -3.74352E+00 -5.41224E+00 -3.74307E+00 -2.83237E+00
 -1.24265E+00 -7.31467E-01 -6.03467E-01 -5.78185E-01 -7.33515E-01 -1.25096E+00
 -2.84047E+00 -3.74307E+00 -1.57331E+00 -1.24265E+00 -9.22456E-01 -8.63016E-01
 -9.31218E-01 -9.25865E-01 -9.20096E-01 -1.00554E+00 -1.24981E+00 -1.57331E+00
 -7.19725E-01 -7.31467E-01 -8.63016E-01 -1.39018E+00 -2.45402E+00 -2.45507E+00
 -1.39545E+00 -9.20096E-01 -7.33980E-01 -7.19725E-01 -5.40662E-01 -6.03467E-01
 -9.31218E-01 -2.45402E+00 -4.25420E+00 -4.26257E+00 -2.45494E+00 -9.23017E-01
 -5.70450E-01 -5.40662E-01 -5.39166E-01 -5.78185E-01 -9.25865E-01 -2.45507E+00
 -4.26257E+00 -4.25565E+00 -2.44718E+00 -9.20421E-01 -5.66389E-01 -5.39166E-01
 -6.96880E-01 -7.33515E-01 -9.20096E-01 -1.39545E+00 -2.45494E+00 -2.44718E+00
 -1.38861E+00 -9.13350E-01 -7.28782E-01 -6.96880E-01 -1.56986E+00 -1.25096E+00
 -1.00554E+00 -9.20096E-01 -9.23017E-01 -9.20421E-01 -9.13350E-01 -9.97287E-01
 -1.24607E+00 -1.56986E+00 -3.74352E+00 -2.84047E+00 -1.24981E+00 -7.33980E-01
 -5.70450E-01 -5.66389E-01 -7.28782E-01 -1.24607E+00 -2.82663E+00 -3.74352E+00
 -5.41224E+00 -3.74307E+00 -1.57331E+00 -7.19725E-01 -5.40662E-01 -5.39166E-01
 -6.96880E-01 -1.56986E+00 -3.74352E+00 -5.41224E+00 -3.74307E+00 -2.83237E+00
 -1.24265E+00 -7.31467E-01 -6.03467E-01 -5.78185E-01 -7.33515E-01 -1.25096E+00
 -2.84047E+00 -3.74307E+00 -2.83237E+00 -2.12332E+00 -1.07889E+00 -7.58061E-01
 -6.55723E-01 -6.56487E-01 -9.12352E-01 -1.32462E+00 -2.09029E+00 -2.83237E+00
 -1.24265E+00 -1.07889E+00 -8.25181E-01 -8.01336E-01 -9.15410E-01 -9.56955E-01
 -1.42124E+00 -1.82464E+00 -1.32556E+00 -1.24265E+00 -7.31467E-01 -7.58061E-01
 -8.01336E-01 -1.16876E+00 -1.83834E+00 -1.81221E+00 -1.52816E+00 -1.42046E+00
 -9.14227E-01 -7.31467E-01 -6.03467E-01 -6.55723E-01 -9.15410E-01 -1.83834E+00
 -3.25489E+00 -3.26712E+00 -1.81605E+00 -9.41660E-01 -6.40552E-01 -6.03467E-01
 -5.78185E-01 -6.56487E-01 -9.56955E-01 -1.81221E+00 -3.26712E+00 -3.26995E+00
 -1.81108E+00 -9.39086E-01 -6.38108E-01 -5.78185E-01 -7.33515E-01 -9.12352E-01
 -1.42124E+00 -1.52816E+00 -1.81605E+00 -1.81108E+00 -1.51970E+00 -1.40952E+00
 -9.06412E-01 -7.33515E-01 -1.25096E+00 -1.32462E+00 -1.82464E+00 -1.42046E+00
 -9.41660E-01 -9.39086E-01 -1.40952E+00 -1.81099E+00 -1.31833E+00 -1.25096E+00
 -2.84047E+00 -2.09029E+00 -1.32556E+00 -9.14227E-01 -6.40552E-01 -6.38108E-01
 -9.06412E-01 -1.31833E+00 -2.08620E+00 -2.84047E+00 -3.74307E+00 -2.83237E+00
 -1.24265E+00 -7.31467E-01 -6.03467E-01 -5.78185E-01 -7.33515E-01 -1.25096E+00
 -2.84047E+00 -3.74307E+00 -1.57331E+00 -1.24265E+00 -9.22456E-01 -8.63016E-01
 -9.31218E-01 -9.25865E-01 -9.20096E-01 -1.00554E+00 -1.24981E+00 -1.57331E+00
 -1.24265E+00 -1.07889E+00 -8.25181E-01 -8.01336E-01 -9.15410E-01 -9.56955E-01
 -1.42124E+00 -1.82464E+00 -1.32556E+00 -1.24265E+00 -9.22456E-01 -8.25181E-01
 -6.90326E-01 -7.19647E-01 -8.36189E-01 -1.07060E+00 -4.09289E+00 -7.12946E+00
 -1.82959E+00 -9.22456E-01 -8.63016E-01 -8.01336E-01 -7.19647E-01 -8.30003E-01
 -1.03226E+00 -1.16990E+00 -2.59530E+00 -4.08390E+00 -1.42343E+00 -8.63016E-01
 -9.31218E-01 -9.15410E-01 -8.36189E-01 -1.03226E+00 -1.38976E+00 -1.38451E+00
 -1.15234E+00 -1.04855E+00 -9.42213E-01 -9.31218E-01 -9.25865E-01 -9.56955E-01
 -1.07060E+00 -1.16990E+00 -1.38451E+00 -1.38330E+00 -1.15077E+00 -1.04489E+00
 -9.40290E-01 -9.25865E-01 -9.20096E-01 -1.42124E+00 -4.09289E+00 -2.59530E+00
 -1.15234E+00 -1.15077E+00 -2.57741E+00 -4.06592E+00 -1.41223E+00 -9.20096E-01
 -1.00554E+00 -1.82464E+00 -7.12946E+00 -4.08390E+00 -1.04855E+00 -1.04489E+00
 -4.06592E+00 -7.10186E+00 -1.81387E+00 -1.00554E+00 -1.24981E+00 -1.32556E+00
 -1.82959E+00 -1.42343E+00 -9.42213E-01 -9.40290E-01 -1.41223E+00 -1.81387E+00
 -1.32117E+00 -1.24981E+00 -1.57331E+00 -1.24265E+00 -9.22456E-01 -8.63016E-01
 -9.31218E-01 -9.25865E-01 -9.20096E-01 -1.00554E+00 -1.24981E+00 -1.57331E+00
 -7.19725E-01 -7.31467E-01 -8.63016E-01 -1.39018E+00 -2.45402E+00 -2.45507E+00
 -1.39545E+00 -9.20096E-01 -7.33980E-01 -7.19725E-01 -7.31467E-01 -7.58061E-01
 -8.01336E-01 -1.16876E+00 -1.83834E+00 -1.81221E+00 -1.52816E+00 -1.42046E+00
 -9.14227E-01 -7.31467E-01 -8.63016E-01 -8.01336E-01 -7.19647E-01 -8.30003E-01
 -1.03226E+00 -1.16990E+00 -2.59530E+00 -4.08390E+00 -1.42343E+00 -8.63016E-01
 -1.39018E+00 -1.16876E+00 -8.30003E-01 -7.29837E-01 -7.78187E-01 -8.64635E-01
 -1.74361E+00 -2.59150E+00 -1.52940E+00 -1.39018E+00 -2.45402E+00 -1.83834E+00
 -1.03226E+00 -7.78187E-01 -7.11893E-01 -6.92991E-01 -8.44700E-01 -1.15261E+00
 -1.81257E+00 -2.45402E+00 -2.45507E+00 -1.81221E+00 -1.16990E+00 -8.64635E-01
 -6.92991E-01 -6.80435E-01 -8.42065E-01 -1.14991E+00 -1.81422E+00 -2.45507E+00
 -1.39545E+00 -1.52816E+00 -2.59530E+00 -1.74361E+00 -8.44700E-01 -8.42065E-01
 -1.73090E+00 -2.57653E+00 -1.52168E+00 -1.39545E+00 -9.20096E-01 -1.42046E+00
 -4.08390E+00 -2.59150E+00 -1.15261E+00 -1.14991E+00 -2.57653E+00 -4.06485E+00
 -1.41141E+00 -9.20096E-01 -7.33980E-01 -9.14227E-01 -1.42343E+00 -1.52940E+00
 -1.81257E+00 -1.81422E+00 -1.52168E+00 -1.41141E+00 -9.07854E-01 -7.33980E-01
 -7.19725E-01 -7.31467E-01 -8.63016E-01 -1.39018E+00 -2.45402E+00 -2.45507E+00
 -1.39545E+00 -9.20096E-01 -7.33980E-01 -7.19725E-01 -5.40662E-01 -6.03467E-01
 -9.31218E-01 -2.45402E+00 -4.25420E+00 -4.26257E+00 -2.45494E+00 -9.23017E-01
 -5.70450E-01 -5.40662E-01 -6.03467E-01 -6.55723E-01 -9.15410E-01 -1.83834E+00
 -3.25489E+00 -3.26712E+00 -1.81605E+00 -9.41660E-01 -6.40552E-01 -6.03467E-01
 -9.31218E-01 -9.15410E-01 -8.36189E-01 -1.03226E+00 -1.38976E+00 -1.38451E+00
 -1.15234E+00 -1.04855E+00 -9.42213E-01 -9.31218E-01 -2.45402E+00 -1.83834E+00
 -1.03226E+00 -7.78187E-01 -7.11893E-01 -6.92991E-01 -8.44700E-01 -1.15261E+00
 -1.81257E+00 -2.45402E+00 -4.25420E+00 -3.25489E+00 -1.38976E+00 -7.11893E-01
 -5.74255E-01 -5.18303E-01 -6.84758E-01 -1.38497E+00 -3.27085E+00 -4.25420E+00
 -4.26257E+00 -3.26712E+00 -1.38451E+00 -6.92991E-01 -5.18303E-01 -5.06391E-01
 -6.81706E-01 -1.37961E+00 -3.26587E+00 -4.26257E+00 -2.45494E+00 -1.81605E+00
 -1.15234E+00 -8.44700E-01 -6.84758E-01 -6.81706E-01 -8.38048E-01 -1.14411E+00
 -1.80440E+00 -2.45494E+00 -9.23017E-01 -9.41660E-01 -1.04855E+00 -1.15261E+00
 -1.38497E+00 -1.37961E+00 -1.14411E+00 -1.03928E+00 -9.36411E-01 -9.23017E-01
 -5.70450E-01 -6.40552E-01 -9.42213E-01 -1.81257E+00 -3.27085E+00 -3.26587E+00
 -1.80440E+00 -9.36411E-01 -6.37700E-01 -5.70450E-01 -5.40662E-01 -6.03467E-01
 -9.31218E-01 -2.45402E+00 -4.25420E+00 -4.26257E+00 -2.45494E+00 -9.23017E-01
 -5.70450E-01 -5.40662E-01 -5.39166E-01 -5.78185E-01 -9.25865E-01 -2.45507E+00
 -4.26257E+00 -4.25565E+00 -2.44718E+00 -9.20421E-01 -5.66389E-01 -5.39166E-01
 -5.78185E-01 -6.56487E-01 -9.56955E-01 -1.81221E+00 -3.26712E+00 -3.26995E+00
 -1.81108E+00 -9.39086E-01 -6.38108E-01 -5.78185E-01 -9.25865E-01 -9.56955E-01
 -1.07060E+00 -1.16990E+00 -1.38451E+00 -1.38330E+00 -1.15077E+00 -1.04489E+00
 -9.40290E-01 -9.25865E-01 -2.45507E+00 -1.81221E+00 -1.16990E+00 -8.64635E-01
 -6.92991E-01 -6.80435E-01 -8.42065E-01 -1.14991E+00 -1.81422E+00 -2.45507E+00
 -4.26257E+00 -3.26712E+00 -1.38451E+00 -6.92991E-01 -5.18303E-01 -5.06391E-01
 -6.81706E-01 -1.37961E+00 -3.26587E+00 -4.26257E+00 -4.25565E+00 -3.26995E+00
 -1.38330E+00 -6.80435E-01 -5.06391E-01 -5.00240E-01 -6.80970E-01 -1.38334E+00
 -3.25181E+00 -4.25565E+00 -2.44718E+00 -1.81108E+00 -1.15077E+00 -8.42065E-01
 -6.81706E-01 -6.80970E-01 -8.36453E-01 -1.14296E+00 -1.81121E+00 -2.44718E+00
 -9.20421E-01 -9.39086E-01 -1.04489E+00 -1.14991E+00 -1.37961E+00 -1.38334E+00
 -1.14296E+00 -1.03687E+00 -9.35137E-01 -9.20421E-01 -5.66389E-01 -6.38108E-01
 -9.40290E-01 -1.81422E+00 -3.26587E+00 -3.25181E+00 -1.81121E+00 -9.35137E-01
 -6.36593E-01 -5.66389E-01 -5.39166E-01 -5.78185E-01 -9.25865E-01 -2.45507E+00
 -4.26257E+00 -4.25565E+00 -2.44718E+00 -9.20421E-01 -5.66389E-01 -5.39166E-01
 -6.96880E-01 -7.33515E-01 -9.20096E-01 -1.39545E+00 -2.45494E+00 -2.44718E+00
 -1.38861E+00 -9.13350E-01 -7.28782E-01 -6.96880E-01 -7.33515E-01 -9.12352E-01
 -1.42124E+00 -1.52816E+00 -1.81605E+00 -1.81108E+00 -1.51970E+00 -1.40952E+00
 -9.06412E-01 -7.33515E-01 -9.20096E-01 -1.42124E+00 -4.09289E+00 -2.59530E+00
 -1.15234E+00 -1.15077E+00 -2.57741E+00 -4.06592E+00 -1.41223E+00 -9.20096E-01
 -1.39545E+00 -1.52816E+00 -2.59530E+00 -1.74361E+00 -8.44700E-01 -8.42065E-01
 -1.73090E+00 -2.57653E+00 -1.52168E+00 -1.39545E+00 -2.45494E+00 -1.81605E+00
 -1.15234E+00 -8.44700E-01 -6.84758E-01 -6.81706E-01 -8.38048E-01 -1.14411E+00
 -1.80440E+00 -2.45494E+00 -2.44718E+00 -1.81108E+00 -1.15077E+00 -8.42065E-01
 -6.81706E-01 -6.80970E-01 -8.36453E-01 -1.14296E+00 -1.81121E+00 -2.44718E+00
 -1.38861E+00 -1.51970E+00 -2.57741E+00 -1.73090E+00 -8.38048E-01 -8.36453E-01
 -1.73138E+00 -2.57596E+00 -1.51095E+00 -1.38861E+00 -9.13350E-01 -1.40952E+00
 -4.06592E+00 -2.57653E+00 -1.14411E+00 -1.14296E+00 -2.57596E+00 -4.07069E+00
 -1.40813E+00 -9.13350E-01 -7.28782E-01 -9.06412E-01 -1.41223E+00 -1.52168E+00
 -1.80440E+00 -1.81121E+00 -1.51095E+00 -1.40813E+00 -9.03788E-01 -7.28782E-01
 -6.96880E-01 -7.33515E-01 -9.20096E-01 -1.39545E+00 -2.45494E+00 -2.44718E+00
 -1.38861E+00 -9.13350E-01 -7.28782E-01 -6.96880E-01 -1.56986E+00 -1.25096E+00
 -1.00554E+00 -9.20096E-01 -9.23017E-01 -9.20421E-01 -9.13350E-01 -9.97287E-01
 -1.24607E+00 -1.56986E+00 -1.25096E+00 -1.32462E+00 -1.82464E+00 -1.42046E+00
 -9.41660E-01 -9.39086E-01 -1.40952E+00 -1.81099E+00 -1.31833E+00 -1.25096E+00
 -1.00554E+00 -1.82464E+00 -7.12946E+00 -4.08390E+00 -1.04855E+00 -1.04489E+00
 -4.06592E+00 -7.10186E+00 -1.81387E+00 -1.00554E+00 -9.20096E-01 -1.42046E+00
 -4.08390E+00 -2.59150E+00 -1.15261E+00 -1.14991E+00 -2.57653E+00 -4.06485E+00
 -1.41141E+00 -9.20096E-01 -9.23017E-01 -9.41660E-01 -1.04855E+00 -1.15261E+00
 -1.38497E+00 -1.37961E+00 -1.14411E+00 -1.03928E+00 -9.36411E-01 -9.23017E-01
 -9.20421E-01 -9.39086E-01 -1.04489E+00 -1.14991E+00 -1.37961E+00 -1.38334E+00
 -1.14296E+00 -1.03687E+00 -9.35137E-01 -9.20421E-01 -9.13350E-01 -1.40952E+00
 -4.06592E+00 -2.57653E+00 -1.14411E+00 -1.14296E+00 -2.57596E+00 -4.07069E+00
 -1.40813E+00 -9.13350E-01 -9.97287E-01 -1.81099E+00 -7.10186E+00 -4.06485E+00
 -1.03928E+00 -1.03687E+00 -4.07069E+00 -7.10965E+00 -1.81049E+00 -9.97287E-01
