Siesta Version  : trunk-764
Architecture    : unknown
Compiler version: GNU Fortran (Ubuntu 5.4.0-6ubuntu1~16.04.10) 5.4.0 20160609
Compiler flags  : mpif90 -O2 -fPIC -ftree-vectorize
PP flags        : -DFC_HAVE_ABORT -DMPI -DFC_HAVE_FLUSH -DFC_HAVE_ABORT -DGRID_DP -DPHI_GRID_SP -DSIESTA__FLOOK -DSIESTA__FLOOK -DSIESTA__DIAG_2STAGE
Libraries       : libsiestaLAPACK.a libsiestaBLAS.a libfdict.a libfdict.a  /usr/lib/libscalapack-openmpi.so   libsiestaLAPACK.a libsiestaBLAS.a libfdict.a libfdict.a /usr/lib/libblacsF77init-openmpi.so /usr/lib/libblacsCinit-openmpi.so /usr/lib/libblacs-openmpi.so  -lflookall -ldl -lflookall -ldl
Directory       : /home/ICN2/aakhtar/Calculations/Learning/Potential/Pure
PARALLEL version
Lua support

* Running on 8 nodes in parallel
>> Start of run:  22-JUL-2019  14:01:33

                           ***********************       
                           *  WELCOME TO SIESTA  *       
                           ***********************       

reinit: Reading from standard input
reinit: Dumped input in INPUT_TMP.68740
************************** Dump of input data file ****************************
# Created by GDIS version 0.90.0
#ZrO2 pure without variable cell
SystemLabel     ZrO2-G
#----------------------------------------------------------
#                       Crystal flags
#----------------------------------------------------------
NumberOfAtoms    12
NumberOfSpecies  2
%block ChemicalSpeciesLabel
    1    8  O
    2   40  Zr
#    3   39  Y
#    4   -8 VO
%endblock ChemicalSpeciesLabel
LatticeConstant 1.0 Ang
%block LatticeParameters
  5.177213    5.177213    5.177213  90.000000  90.000000  90.000000
%endblock LatticeParameters
AtomicCoordinatesFormat Fractional
%block AtomicCoordinatesAndAtomicSpecies
    0.25000000    0.25000000    0.25000000   1       1  O
    0.75000000    0.75000000    0.75000000   1       2  O
    0.75000000    0.75000000    0.25000000   1       3  O
    0.25000000    0.25000000    0.75000000   1       4  O
    0.75000000    0.25000000    0.75000000   1       5  O
    0.25000000    0.75000000    0.25000000   1       6  O
    0.25000000    0.75000000    0.75000000   1       7  O
    0.75000000    0.25000000    0.25000000   1       8  O
   -0.00000000   -0.00000000   -0.00000000   2       9  Zr
   -0.00000000    0.50000000    0.50000000   2      10  Zr
    0.50000000   -0.00000000    0.50000000   2      11  Zr
    0.50000000    0.50000000   -0.00000000   2      12  Zr
%endblock AtomicCoordinatesAndAtomicSpecies
#%block Geometry.Constraints
#atom 1
#%endblock Geometry.Constraints
#----------------------------------------------------------
#                       Basis flags
#----------------------------------------------------------
%block PAO.Basis
 Zr   4
   n=5  0  2
        5.6054862       -0.6003580
        1.000   1.000
   n=4  1  2
        5.5279442       -0.4575023
        1.000           1.000
   n=5  1  1
        4.7571701
        1.000
   n=4  2  2
        6.0921820       -0.5609145
        1.000           1.000
O     3   -0.4158308
 n=2   0   2   E  25.2217485   -0.7787941
   4.1893036           -0.5955594
   1.00000             1.00000
 n=2   1   2   E  13.2644853   -0.7950761
   6.0475603           -0.6742187
   1.00000             1.00000
 n=3   2   1   E  45.9587470   -0.7957318
   3.2675257
   1.00000
%endblock PAO.Basis
#Y    4      0.18480
3 n=5   0   2   E    54.30244     1.81665
#     3.73233     2.17478
#     1.00000     1.00000
# n=4   1   2   E    34.29848     2.87971
#     4.91942     2.39915
#     1.00000     1.00000
# n=5   1   1   E    42.47320     1.98078
#     3.52352
#     1.00000
# n=4   2   2   E    12.30267     2.52239
#     5.23907     3.07050
#     1.00000     1.00000
#VO     3   -0.4158308
# n=2   0   2   E  25.2217485   -0.7787941
#   4.1893036           -0.5955594
#   1.00000             1.00000
# n=2   1   2   E  13.2644853   -0.7950761
#   6.0475603           -0.6742187
#   1.00000             1.00000
# n=3   2   1   E  45.9587470   -0.7957318
#   3.2675257
#   1.00000
#%block kgrid_Monkhorst_Pack
#3    0    0     0.0
#0    3    0     0.0
#0    0    3     0.0
#%endblock kgrid_Monkhorst_Pack
MeshCutoff 		600  Ry
XC.functional 		GGA
XC.authors 		revPBE
SpinPolarized           .true.
#----------------------------------------------------------
#                       DM flags
#----------------------------------------------------------
DM.MixingWeight 	0.20
DM.NumberPulay          4
DM.UseSaveDM            .true.
DM.Tolerance 		1.0d-4
MaxSCFIterations 	150
#----------------------------------------------------------
#                       MD flags
#----------------------------------------------------------
MD.MaxCGDispl           0.1 Bohr
MD.TypeOfRun            CG
MD.VariableCell         .true.
MD.NumCGsteps           0
MD.MaxForceTol          0.04000 eV/Ang
MD.UseSaveXV            .true.
#----------------------------------------------------------
#                       Electronic flags
#----------------------------------------------------------
ElectronicTemperature   5 K
NumberOfEigenStates     800
#COOP.Write             .true.
#WFS.Write.For.Bands    .true.
#BandLinesScale ReciprocalLatticeVectors
#%block BandLines
  1  0.000 0.000 0.000  \Gamma
 200  0.500 0.500 0.000  M
 200  0.000 0.500 0.000  X
 200  0.000 0.000 0.000  \Gamma
 200  0.500 0.500 0.500  R
 200  0.000 0.000 0.000  \Gamma
#%endblock BandLines
UseNewDiagk            .false.
Diag.ParallelOverK     .false.
LongOutput
WriteMDHistory         .true.
WriteMDXmol            .true.
%block kgrid_Monkhorst_Pack
   9   0   0       0.00
   0   9   0       0.00
   0   0   9       0.00
%endblock kgrid_Monkhorst_Pack
#SaveTotalPotential T
WriteMullikenPop 3
************************** End of input data file *****************************

reinit: -----------------------------------------------------------------------
reinit: System Name: 
reinit: -----------------------------------------------------------------------
reinit: System Label: ZrO2-G
reinit: -----------------------------------------------------------------------

initatom: Reading input for the pseudopotentials and atomic orbitals ----------
Species number:   1 Atomic number:    8 Label: O
Species number:   2 Atomic number:   40 Label: Zr

Ground state valence configuration:   2s02  2p04
Reading pseudopotential information in formatted form from O.psf

Pseudopotential generated from a relativistic atomic calculation

Valence configuration for pseudopotential generation:
2s( 2.00) rc: 1.14
2p( 4.00) rc: 1.14
3d( 0.00) rc: 1.14
4f( 0.00) rc: 1.48
Ground state valence configuration:   5s02  4d02
Reading pseudopotential information in formatted form from Zr.psf

Pseudopotential generated from a relativistic atomic calculation

Valence configuration for pseudopotential generation:
5s( 2.00) rc: 3.00
4p( 6.00) rc: 1.49
4d( 2.00) rc: 1.40
4f( 0.00) rc: 1.19
Semicore shell(s) with  6 electrons included in the valence for
Zr
For O, standard SIESTA heuristics set lmxkb to 3
 (one more than the basis l, including polarization orbitals).
Use PS.lmax or PS.KBprojectors blocks to override.
For Zr, standard SIESTA heuristics set lmxkb to 3
 (one more than the basis l, including polarization orbitals).
Use PS.lmax or PS.KBprojectors blocks to override.

<basis_specs>
===============================================================================
O                    Z=   8    Mass=  16.000        Charge=-0.41583    
Lmxo=2 Lmxkb= 3    BasisType=split      Semic=F
L=0  Nsemic=0  Cnfigmx=2
          i=1  nzeta=2  polorb=0  (2s)
            splnorm:   0.15000    
               vcte:    25.222    
               rinn:  -0.77879    
               qcoe:    0.0000    
               qyuk:    0.0000    
               qwid:   0.10000E-01
                rcs:    4.1893    -0.59556    
            lambdas:    1.0000      1.0000    
L=1  Nsemic=0  Cnfigmx=2
          i=1  nzeta=2  polorb=0  (2p)
            splnorm:   0.15000    
               vcte:    13.264    
               rinn:  -0.79508    
               qcoe:    0.0000    
               qyuk:    0.0000    
               qwid:   0.10000E-01
                rcs:    6.0476    -0.67422    
            lambdas:    1.0000      1.0000    
L=2  Nsemic=0  Cnfigmx=3
          i=1  nzeta=1  polorb=0  (3d)
            splnorm:   0.15000    
               vcte:    45.959    
               rinn:  -0.79573    
               qcoe:    0.0000    
               qyuk:    0.0000    
               qwid:   0.10000E-01
                rcs:    3.2675    
            lambdas:    1.0000    
-------------------------------------------------------------------------------
L=0  Nkbl=1  erefs: 0.17977+309
L=1  Nkbl=1  erefs: 0.17977+309
L=2  Nkbl=1  erefs: 0.17977+309
L=3  Nkbl=1  erefs: 0.17977+309
===============================================================================
</basis_specs>

atom: Called for O                     (Z =   8)

read_vps: Pseudopotential generation method:
read_vps: ATM3.3    Troullier-Martins                       
Total valence charge:    6.00000

read_vps: Pseudopotential includes a core correction:
read_vps: Pseudo-core for xc-correction

xc_check: Exchange-correlation functional:
xc_check: GGA revPBE
V l=0 = -2*Zval/r beyond r=  1.1278
V l=1 = -2*Zval/r beyond r=  1.1278
V l=2 = -2*Zval/r beyond r=  1.1278
V l=3 = -2*Zval/r beyond r=  1.4665
All V_l potentials equal beyond r=  1.4482
This should be close to max(r_c) in ps generation
All pots = -2*Zval/r beyond r=  1.4665

VLOCAL1: 99.0% of the norm of Vloc inside     20.696 Ry
VLOCAL1: 99.9% of the norm of Vloc inside     47.167 Ry
atom: Maximum radius for 4*pi*r*r*local-pseudopot. charge    1.74697
atom: Maximum radius for r*vlocal+2*Zval:    1.52250

KBgen: Kleinman-Bylander projectors: 
GHOST: No ghost state for L =  0
   l= 0   rc=  1.620715   el= -1.762453   Ekb= 12.304028   kbcos=  0.151877
GHOST: No ghost state for L =  1
   l= 1   rc=  1.600578   el= -0.659331   Ekb=-10.019323   kbcos= -0.441129
GHOST: No ghost state for L =  2
   l= 2   rc=  1.725262   el=  0.001944   Ekb= -2.779253   kbcos= -0.005180
GHOST: No ghost state for L =  3
   l= 3   rc=  2.271458   el=  0.003066   Ekb= -0.634310   kbcos= -0.000917

KBgen: Total number of  Kleinman-Bylander projectors:   16
atom: -------------------------------------------------------------------------

atom: SANKEY-TYPE ORBITALS:
atom: Selected multiple-zeta basis: split     

atom: basis set generated (by rescaling the valence charge)
atom: for an anion of charge  -0.4158

SPLIT: Orbitals with angular momentum L= 0

SPLIT: Basis orbitals for state 2s

   izeta = 1
                 lambda =    1.000000
                     rc =    4.243912
                 energy =   -1.754694
                kinetic =    1.459503
    potential(screened) =   -3.214196
       potential(ionic) =  -10.979225

   izeta = 2
                 rmatch =    2.573941
              splitnorm =    0.174700
                 energy =   -1.531239
                kinetic =    2.385766
    potential(screened) =   -3.917005
       potential(ionic) =  -12.378237

SPLIT: Orbitals with angular momentum L= 1

SPLIT: Basis orbitals for state 2p

   izeta = 1
                 lambda =    1.000000
                     rc =    6.022527
                 energy =   -0.637954
                kinetic =    3.936049
    potential(screened) =   -4.574003
       potential(ionic) =  -11.710564

   izeta = 2
                 rmatch =    4.036919
              splitnorm =    0.072287
                 energy =   -0.633996
                kinetic =    5.012517
    potential(screened) =   -5.646513
       potential(ionic) =  -13.458336

SPLIT: Orbitals with angular momentum L= 2

SPLIT: Basis orbitals for state 3d

   izeta = 1
                 lambda =    1.000000
                     rc =    3.305093
                 energy =    2.272910
                kinetic =    3.561671
    potential(screened) =   -1.288760
       potential(ionic) =   -7.031728
atom: Total number of Sankey-type orbitals: 13

atm_pop: Valence configuration (for local Pseudopot. screening):
 2s( 2.00)                                                            
 2p( 4.00)                                                            
 3d( 0.00)                                                            
Vna: chval, zval:    6.00000   6.00000

Vna:  Cut-off radius for the neutral-atom potential:   6.022527
comcore: Pseudo-core radius Rcore=  1.377587

atom: _________________________________________________________________________

<basis_specs>
===============================================================================
Zr                   Z=  40    Mass=  91.220        Charge= 0.17977+309
Lmxo=2 Lmxkb= 3    BasisType=split      Semic=T
L=0  Nsemic=0  Cnfigmx=5
          i=1  nzeta=2  polorb=0  (5s)
            splnorm:   0.15000    
               vcte:    0.0000    
               rinn:    0.0000    
               qcoe:    0.0000    
               qyuk:    0.0000    
               qwid:   0.10000E-01
                rcs:    5.6055    -0.60036    
            lambdas:    1.0000      1.0000    
L=1  Nsemic=1  Cnfigmx=5
          i=1  nzeta=2  polorb=0  (4p)
            splnorm:   0.15000    
               vcte:    0.0000    
               rinn:    0.0000    
               qcoe:    0.0000    
               qyuk:    0.0000    
               qwid:   0.10000E-01
                rcs:    5.5279    -0.45750    
            lambdas:    1.0000      1.0000    
          i=2  nzeta=1  polorb=0  (5p)
            splnorm:   0.15000    
               vcte:    0.0000    
               rinn:    0.0000    
               qcoe:    0.0000    
               qyuk:    0.0000    
               qwid:   0.10000E-01
                rcs:    4.7572    
            lambdas:    1.0000    
L=2  Nsemic=0  Cnfigmx=4
          i=1  nzeta=2  polorb=0  (4d)
            splnorm:   0.15000    
               vcte:    0.0000    
               rinn:    0.0000    
               qcoe:    0.0000    
               qyuk:    0.0000    
               qwid:   0.10000E-01
                rcs:    6.0922    -0.56091    
            lambdas:    1.0000      1.0000    
-------------------------------------------------------------------------------
L=0  Nkbl=1  erefs: 0.17977+309
L=1  Nkbl=2  erefs: 0.17977+309 0.17977+309
L=2  Nkbl=1  erefs: 0.17977+309
L=3  Nkbl=1  erefs: 0.17977+309
===============================================================================
</basis_specs>

atom: Called for Zr                    (Z =  40)

read_vps: Pseudopotential generation method:
read_vps: ATM3.3    Troullier-Martins                       
Total valence charge:   10.00000

read_vps: Pseudopotential includes a core correction:
read_vps: Pseudo-core for xc-correction

xc_check: Exchange-correlation functional:
xc_check: GGA revPBE
V l=0 = -2*Zval/r beyond r=  3.0759
V l=1 = -2*Zval/r beyond r=  3.0377
V l=2 = -2*Zval/r beyond r=  3.0377
V l=3 = -2*Zval/r beyond r=  3.0377
All V_l potentials equal beyond r=  2.9259
This should be close to max(r_c) in ps generation
All pots = -2*Zval/r beyond r=  3.0759

VLOCAL1: 99.0% of the norm of Vloc inside      5.070 Ry
VLOCAL1: 99.9% of the norm of Vloc inside     11.556 Ry
atom: Maximum radius for 4*pi*r*r*local-pseudopot. charge    3.52931
atom: Maximum radius for r*vlocal+2*Zval:    3.11460

KBgen: Kleinman-Bylander projectors: 
GHOST: No ghost state for L =  0
   l= 0   rc=  3.357183   el= -0.322240   Ekb=  2.666096   kbcos=  0.306011
   l= 1   rc=  3.114600   el= -2.383749   Ekb= -3.477289   kbcos= -0.809822
   l= 1   rc=  3.485470   el= -0.107615   Ekb= -1.237773   kbcos= -0.108616
GHOST: No ghost state for L =  2
   l= 2   rc=  3.233617   el= -0.263464   Ekb= -4.080270   kbcos= -0.506883
GHOST: No ghost state for L =  3
   l= 3   rc=  3.442172   el=  0.002958   Ekb= -5.741872   kbcos= -0.018992
KBgen: More than one KB projector for some l shell(s)
KBgen: ghost-state analysis will not be performed

KBgen: Total number of  Kleinman-Bylander projectors:   19
atom: -------------------------------------------------------------------------

atom: SANKEY-TYPE ORBITALS:
atom: Selected multiple-zeta basis: split     

SPLIT: Orbitals with angular momentum L= 0

SPLIT: Basis orbitals for state 5s

   izeta = 1
                 lambda =    1.000000
                     rc =    5.675222
                 energy =   -0.222985
                kinetic =    0.385078
    potential(screened) =   -0.608063
       potential(ionic) =   -6.529030

   izeta = 2
                 rmatch =    3.442172
              splitnorm =    1.238298
                 energy =    2.320254
                kinetic =    1.323090
    potential(screened) =    0.997164
       potential(ionic) =   -8.682572

SPLIT: Orbitals with angular momentum L= 1

SPLIT: Basis orbitals for state 4p

   izeta = 1
                 lambda =    1.000000
                     rc =    5.535098
                 energy =   -2.383834
                kinetic =    3.009651
    potential(screened) =   -5.393485
       potential(ionic) =  -14.886612

   izeta = 2
                 rmatch =    2.550007
              splitnorm =    0.147641
                 energy =   -2.016178
                kinetic =    4.366354
    potential(screened) =   -6.382532
       potential(ionic) =  -16.391777

SPLIT: Basis orbitals for state 5p

   izeta = 1
                 lambda =    1.000000
                     rc =    4.764095
                 energy =    0.380983
                kinetic =    1.958633
    potential(screened) =   -1.577650
       potential(ionic) =   -7.895920

SPLIT: Orbitals with angular momentum L= 2

SPLIT: Basis orbitals for state 4d

   izeta = 1
                 lambda =    1.000000
                     rc =    6.117236
                 energy =   -0.252733
                kinetic =    2.903865
    potential(screened) =   -3.156599
       potential(ionic) =  -10.999884

   izeta = 2
                 rmatch =    3.442172
              splitnorm =    0.260503
                 energy =    0.034284
                kinetic =    4.814854
    potential(screened) =   -4.780569
       potential(ionic) =  -13.872386
atom: Total number of Sankey-type orbitals: 21

atm_pop: Valence configuration (for local Pseudopot. screening):
 5s( 2.00)                                                            
 4p( 6.00) 5p( 0.00)                                                  
 4d( 2.00)                                                            
Vna: chval, zval:   10.00000  10.00000

Vna:  Cut-off radius for the neutral-atom potential:   6.117236
comcore: Pseudo-core radius Rcore=  4.100486

atom: _________________________________________________________________________

prinput: Basis input ----------------------------------------------------------

PAO.BasisType split     

%block ChemicalSpeciesLabel
    1    8 O                       # Species index, atomic number, species label
    2   40 Zr                      # Species index, atomic number, species label
%endblock ChemicalSpeciesLabel

%block PAO.Basis                 # Define Basis set
O                     3  -0.416            # Label, l-shells, ionic net charge
 n=2   0   2                         # n, l, Nzeta 
   4.244      2.574   
   1.000      1.000   
 n=2   1   2                         # n, l, Nzeta 
   6.023      4.037   
   1.000      1.000   
 n=3   2   1                         # n, l, Nzeta 
   3.305   
   1.000   
Zr                    4                    # Species label, number of l-shells
 n=5   0   2                         # n, l, Nzeta 
   5.675      3.442   
   1.000      1.000   
 n=4   1   2                         # n, l, Nzeta 
   5.535      2.550   
   1.000      1.000   
 n=5   1   1                         # n, l, Nzeta 
   4.764   
   1.000   
 n=4   2   2                         # n, l, Nzeta 
   6.117      3.442   
   1.000      1.000   
%endblock PAO.Basis

prinput: ----------------------------------------------------------------------

coor:   Atomic-coordinates input format  =     Fractional

ioxv: Reading coordinates and velocities from file
! Info in XV file prevails over previous structure input

siesta: Atomic coordinates (Bohr) and species
siesta:      2.44588   2.44588   2.44588  1        1
siesta:      7.33764   7.33764   7.33764  1        2
siesta:      7.33764   7.33764   2.44588  1        3
siesta:      2.44588   2.44588   7.33764  1        4
siesta:      7.33764   2.44588   7.33764  1        5
siesta:      2.44588   7.33764   2.44588  1        6
siesta:      2.44588   7.33764   7.33764  1        7
siesta:      7.33764   2.44588   2.44588  1        8
siesta:      0.00000   0.00000   0.00000  2        9
siesta:      0.00000   4.89176   4.89176  2       10
siesta:      4.89176   0.00000   4.89176  2       11
siesta:      4.89176   4.89176   0.00000  2       12

siesta: System type = bulk      

initatomlists: Number of atoms, orbitals, and projectors:     12   188   204

siesta: ******************** Simulation parameters ****************************
siesta:
siesta: The following are some of the parameters of the simulation.
siesta: A complete list of the parameters used, including default values,
siesta: can be found in file out.fdf
siesta:
redata: Spin configuration                          = collinear
redata: Number of spin components                   = 2
redata: Time-Reversal Symmetry                      = T
redata: Spin-spiral                                 = F
redata: Long output                                 =   T
redata: Number of Atomic Species                    =        2
redata: Charge density info will appear in .RHO file
redata: Write Mulliken Pop.                         = Atomic and Orbital charges
                                                      plus Atomic Overlap Populations
                                                      plus Orbital Overlap Populations
redata: Matel table size (NRTAB)                    =     1024
redata: Mesh Cutoff                                 =   600.0000 Ry
redata: Net charge of the system                    =     0.0000 |e|
redata: Min. number of SCF Iter                     =        0
redata: Max. number of SCF Iter                     =      150
redata: SCF convergence failure will abort job
redata: SCF mix quantity                            = Hamiltonian
redata: Mix DM or H after convergence               =   F
redata: Recompute H after scf cycle                 =   F
redata: Mix DM in first SCF step                    =   T
redata: Write Pulay info on disk                    =   F
redata: New DM Mixing Weight                        =     0.2000
redata: New DM Occupancy tolerance                  = 0.000000000001
redata: No kicks to SCF
redata: DM Mixing Weight for Kicks                  =     0.5000
redata: Require Harris convergence for SCF          =   F
redata: Harris energy tolerance for SCF             =     0.000100 eV
redata: Require DM convergence for SCF              =   T
redata: DM tolerance for SCF                        =     0.000100
redata: Require EDM convergence for SCF             =   F
redata: EDM tolerance for SCF                       =     0.001000 eV
redata: Require H convergence for SCF               =   T
redata: Hamiltonian tolerance for SCF               =     0.001000 eV
redata: Require (free) Energy convergence for SCF   =   F
redata: (free) Energy tolerance for SCF             =     0.000100 eV
redata: Antiferro initial spin density              =   F
redata: Using Saved Data (generic)                  =   F
redata: Use continuation files for DM               =   T
redata: Neglect nonoverlap interactions             =   F
redata: Method of Calculation                       = Diagonalization
redata: Electronic Temperature                      =     5.0000 K
redata: Fix the spin of the system                  =   F
redata: Max. number of TDED Iter                    =        1
redata: Number of TDED substeps                     =        3
redata: Dynamics option                             = Single-point calculation
mix.SCF: Pulay mixing                            = Pulay
mix.SCF:    Variant                              = stable
mix.SCF:    History steps                        = 4
mix.SCF:    Linear mixing weight                 =     0.200000
mix.SCF:    Mixing weight                        =     0.200000
mix.SCF:    SVD condition                        = 0.1000E-07
mix.SCF: Spin-component mixing                   all
redata: ***********************************************************************

%block SCF.Mixers
  Pulay
%endblock SCF.Mixers

%block SCF.Mixer.Pulay
  # Mixing method
  method pulay
  variant stable

  # Mixing options
  weight 0.2000
  weight.linear 0.2000
  history 4
%endblock SCF.Mixer.Pulay

DM_history_depth set to one: no extrapolation allowed by default for geometry relaxation
Size of DM history Fstack: 1
Total number of electrons:    88.000000
Total ionic charge:    88.000000

* ProcessorY, Blocksize:    2  24


* Orbital distribution balance (max,min):    24    20

 Kpoints in:          405 . Kpoints trimmed:          365

siesta: k-point coordinates (Bohr**-1) and weights:
siesta:          1 -0.285432E+00 -0.285432E+00  0.000000E+00   0.274348E-02
siesta:          2 -0.214074E+00 -0.285432E+00  0.000000E+00   0.274348E-02
siesta:          3 -0.142716E+00 -0.285432E+00  0.000000E+00   0.274348E-02
siesta:          4 -0.713579E-01 -0.285432E+00  0.000000E+00   0.274348E-02
siesta:          5  0.000000E+00 -0.285432E+00  0.000000E+00   0.274348E-02
siesta:          6  0.713579E-01 -0.285432E+00  0.000000E+00   0.274348E-02
siesta:          7  0.142716E+00 -0.285432E+00  0.000000E+00   0.274348E-02
siesta:          8  0.214074E+00 -0.285432E+00  0.000000E+00   0.274348E-02
siesta:          9  0.285432E+00 -0.285432E+00  0.000000E+00   0.274348E-02
siesta:         10 -0.285432E+00 -0.214074E+00  0.000000E+00   0.274348E-02
siesta:         11 -0.214074E+00 -0.214074E+00  0.000000E+00   0.274348E-02
siesta:         12 -0.142716E+00 -0.214074E+00  0.000000E+00   0.274348E-02
siesta:         13 -0.713579E-01 -0.214074E+00  0.000000E+00   0.274348E-02
siesta:         14  0.000000E+00 -0.214074E+00  0.000000E+00   0.274348E-02
siesta:         15  0.713579E-01 -0.214074E+00  0.000000E+00   0.274348E-02
siesta:         16  0.142716E+00 -0.214074E+00  0.000000E+00   0.274348E-02
siesta:         17  0.214074E+00 -0.214074E+00  0.000000E+00   0.274348E-02
siesta:         18  0.285432E+00 -0.214074E+00  0.000000E+00   0.274348E-02
siesta:         19 -0.285432E+00 -0.142716E+00  0.000000E+00   0.274348E-02
siesta:         20 -0.214074E+00 -0.142716E+00  0.000000E+00   0.274348E-02
siesta:         21 -0.142716E+00 -0.142716E+00  0.000000E+00   0.274348E-02
siesta:         22 -0.713579E-01 -0.142716E+00  0.000000E+00   0.274348E-02
siesta:         23  0.000000E+00 -0.142716E+00  0.000000E+00   0.274348E-02
siesta:         24  0.713579E-01 -0.142716E+00  0.000000E+00   0.274348E-02
siesta:         25  0.142716E+00 -0.142716E+00  0.000000E+00   0.274348E-02
siesta:         26  0.214074E+00 -0.142716E+00  0.000000E+00   0.274348E-02
siesta:         27  0.285432E+00 -0.142716E+00  0.000000E+00   0.274348E-02
siesta:         28 -0.285432E+00 -0.713579E-01  0.000000E+00   0.274348E-02
siesta:         29 -0.214074E+00 -0.713579E-01  0.000000E+00   0.274348E-02
siesta:         30 -0.142716E+00 -0.713579E-01  0.000000E+00   0.274348E-02
siesta:         31 -0.713579E-01 -0.713579E-01  0.000000E+00   0.274348E-02
siesta:         32  0.000000E+00 -0.713579E-01  0.000000E+00   0.274348E-02
siesta:         33  0.713579E-01 -0.713579E-01  0.000000E+00   0.274348E-02
siesta:         34  0.142716E+00 -0.713579E-01  0.000000E+00   0.274348E-02
siesta:         35  0.214074E+00 -0.713579E-01  0.000000E+00   0.274348E-02
siesta:         36  0.285432E+00 -0.713579E-01  0.000000E+00   0.274348E-02
siesta:         37 -0.285432E+00  0.000000E+00  0.000000E+00   0.274348E-02
siesta:         38 -0.214074E+00  0.000000E+00  0.000000E+00   0.274348E-02
siesta:         39 -0.142716E+00  0.000000E+00  0.000000E+00   0.274348E-02
siesta:         40 -0.713579E-01  0.000000E+00  0.000000E+00   0.274348E-02
siesta:         41  0.000000E+00  0.000000E+00  0.000000E+00   0.137174E-02
siesta:         42 -0.285432E+00 -0.285432E+00  0.713579E-01   0.274348E-02
siesta:         43 -0.214074E+00 -0.285432E+00  0.713579E-01   0.274348E-02
siesta:         44 -0.142716E+00 -0.285432E+00  0.713579E-01   0.274348E-02
siesta:         45 -0.713579E-01 -0.285432E+00  0.713579E-01   0.274348E-02
siesta:         46  0.000000E+00 -0.285432E+00  0.713579E-01   0.274348E-02
siesta:         47  0.713579E-01 -0.285432E+00  0.713579E-01   0.274348E-02
siesta:         48  0.142716E+00 -0.285432E+00  0.713579E-01   0.274348E-02
siesta:         49  0.214074E+00 -0.285432E+00  0.713579E-01   0.274348E-02
siesta:         50  0.285432E+00 -0.285432E+00  0.713579E-01   0.274348E-02
siesta:         51 -0.285432E+00 -0.214074E+00  0.713579E-01   0.274348E-02
siesta:         52 -0.214074E+00 -0.214074E+00  0.713579E-01   0.274348E-02
siesta:         53 -0.142716E+00 -0.214074E+00  0.713579E-01   0.274348E-02
siesta:         54 -0.713579E-01 -0.214074E+00  0.713579E-01   0.274348E-02
siesta:         55  0.000000E+00 -0.214074E+00  0.713579E-01   0.274348E-02
siesta:         56  0.713579E-01 -0.214074E+00  0.713579E-01   0.274348E-02
siesta:         57  0.142716E+00 -0.214074E+00  0.713579E-01   0.274348E-02
siesta:         58  0.214074E+00 -0.214074E+00  0.713579E-01   0.274348E-02
siesta:         59  0.285432E+00 -0.214074E+00  0.713579E-01   0.274348E-02
siesta:         60 -0.285432E+00 -0.142716E+00  0.713579E-01   0.274348E-02
siesta:         61 -0.214074E+00 -0.142716E+00  0.713579E-01   0.274348E-02
siesta:         62 -0.142716E+00 -0.142716E+00  0.713579E-01   0.274348E-02
siesta:         63 -0.713579E-01 -0.142716E+00  0.713579E-01   0.274348E-02
siesta:         64  0.000000E+00 -0.142716E+00  0.713579E-01   0.274348E-02
siesta:         65  0.713579E-01 -0.142716E+00  0.713579E-01   0.274348E-02
siesta:         66  0.142716E+00 -0.142716E+00  0.713579E-01   0.274348E-02
siesta:         67  0.214074E+00 -0.142716E+00  0.713579E-01   0.274348E-02
siesta:         68  0.285432E+00 -0.142716E+00  0.713579E-01   0.274348E-02
siesta:         69 -0.285432E+00 -0.713579E-01  0.713579E-01   0.274348E-02
siesta:         70 -0.214074E+00 -0.713579E-01  0.713579E-01   0.274348E-02
siesta:         71 -0.142716E+00 -0.713579E-01  0.713579E-01   0.274348E-02
siesta:         72 -0.713579E-01 -0.713579E-01  0.713579E-01   0.274348E-02
siesta:         73  0.000000E+00 -0.713579E-01  0.713579E-01   0.274348E-02
siesta:         74  0.713579E-01 -0.713579E-01  0.713579E-01   0.274348E-02
siesta:         75  0.142716E+00 -0.713579E-01  0.713579E-01   0.274348E-02
siesta:         76  0.214074E+00 -0.713579E-01  0.713579E-01   0.274348E-02
siesta:         77  0.285432E+00 -0.713579E-01  0.713579E-01   0.274348E-02
siesta:         78 -0.285432E+00  0.000000E+00  0.713579E-01   0.274348E-02
siesta:         79 -0.214074E+00  0.000000E+00  0.713579E-01   0.274348E-02
siesta:         80 -0.142716E+00  0.000000E+00  0.713579E-01   0.274348E-02
siesta:         81 -0.713579E-01  0.000000E+00  0.713579E-01   0.274348E-02
siesta:         82  0.000000E+00  0.000000E+00  0.713579E-01   0.274348E-02
siesta:         83  0.713579E-01  0.000000E+00  0.713579E-01   0.274348E-02
siesta:         84  0.142716E+00  0.000000E+00  0.713579E-01   0.274348E-02
siesta:         85  0.214074E+00  0.000000E+00  0.713579E-01   0.274348E-02
siesta:         86  0.285432E+00  0.000000E+00  0.713579E-01   0.274348E-02
siesta:         87 -0.285432E+00  0.713579E-01  0.713579E-01   0.274348E-02
siesta:         88 -0.214074E+00  0.713579E-01  0.713579E-01   0.274348E-02
siesta:         89 -0.142716E+00  0.713579E-01  0.713579E-01   0.274348E-02
siesta:         90 -0.713579E-01  0.713579E-01  0.713579E-01   0.274348E-02
siesta:         91  0.000000E+00  0.713579E-01  0.713579E-01   0.274348E-02
siesta:         92  0.713579E-01  0.713579E-01  0.713579E-01   0.274348E-02
siesta:         93  0.142716E+00  0.713579E-01  0.713579E-01   0.274348E-02
siesta:         94  0.214074E+00  0.713579E-01  0.713579E-01   0.274348E-02
siesta:         95  0.285432E+00  0.713579E-01  0.713579E-01   0.274348E-02
siesta:         96 -0.285432E+00  0.142716E+00  0.713579E-01   0.274348E-02
siesta:         97 -0.214074E+00  0.142716E+00  0.713579E-01   0.274348E-02
siesta:         98 -0.142716E+00  0.142716E+00  0.713579E-01   0.274348E-02
siesta:         99 -0.713579E-01  0.142716E+00  0.713579E-01   0.274348E-02
siesta:        100  0.000000E+00  0.142716E+00  0.713579E-01   0.274348E-02
siesta:        101  0.713579E-01  0.142716E+00  0.713579E-01   0.274348E-02
siesta:        102  0.142716E+00  0.142716E+00  0.713579E-01   0.274348E-02
siesta:        103  0.214074E+00  0.142716E+00  0.713579E-01   0.274348E-02
siesta:        104  0.285432E+00  0.142716E+00  0.713579E-01   0.274348E-02
siesta:        105 -0.285432E+00  0.214074E+00  0.713579E-01   0.274348E-02
siesta:        106 -0.214074E+00  0.214074E+00  0.713579E-01   0.274348E-02
siesta:        107 -0.142716E+00  0.214074E+00  0.713579E-01   0.274348E-02
siesta:        108 -0.713579E-01  0.214074E+00  0.713579E-01   0.274348E-02
siesta:        109  0.000000E+00  0.214074E+00  0.713579E-01   0.274348E-02
siesta:        110  0.713579E-01  0.214074E+00  0.713579E-01   0.274348E-02
siesta:        111  0.142716E+00  0.214074E+00  0.713579E-01   0.274348E-02
siesta:        112  0.214074E+00  0.214074E+00  0.713579E-01   0.274348E-02
siesta:        113  0.285432E+00  0.214074E+00  0.713579E-01   0.274348E-02
siesta:        114 -0.285432E+00  0.285432E+00  0.713579E-01   0.274348E-02
siesta:        115 -0.214074E+00  0.285432E+00  0.713579E-01   0.274348E-02
siesta:        116 -0.142716E+00  0.285432E+00  0.713579E-01   0.274348E-02
siesta:        117 -0.713579E-01  0.285432E+00  0.713579E-01   0.274348E-02
siesta:        118  0.000000E+00  0.285432E+00  0.713579E-01   0.274348E-02
siesta:        119  0.713579E-01  0.285432E+00  0.713579E-01   0.274348E-02
siesta:        120  0.142716E+00  0.285432E+00  0.713579E-01   0.274348E-02
siesta:        121  0.214074E+00  0.285432E+00  0.713579E-01   0.274348E-02
siesta:        122  0.285432E+00  0.285432E+00  0.713579E-01   0.274348E-02
siesta:        123 -0.285432E+00 -0.285432E+00  0.142716E+00   0.274348E-02
siesta:        124 -0.214074E+00 -0.285432E+00  0.142716E+00   0.274348E-02
siesta:        125 -0.142716E+00 -0.285432E+00  0.142716E+00   0.274348E-02
siesta:        126 -0.713579E-01 -0.285432E+00  0.142716E+00   0.274348E-02
siesta:        127  0.000000E+00 -0.285432E+00  0.142716E+00   0.274348E-02
siesta:        128  0.713579E-01 -0.285432E+00  0.142716E+00   0.274348E-02
siesta:        129  0.142716E+00 -0.285432E+00  0.142716E+00   0.274348E-02
siesta:        130  0.214074E+00 -0.285432E+00  0.142716E+00   0.274348E-02
siesta:        131  0.285432E+00 -0.285432E+00  0.142716E+00   0.274348E-02
siesta:        132 -0.285432E+00 -0.214074E+00  0.142716E+00   0.274348E-02
siesta:        133 -0.214074E+00 -0.214074E+00  0.142716E+00   0.274348E-02
siesta:        134 -0.142716E+00 -0.214074E+00  0.142716E+00   0.274348E-02
siesta:        135 -0.713579E-01 -0.214074E+00  0.142716E+00   0.274348E-02
siesta:        136  0.000000E+00 -0.214074E+00  0.142716E+00   0.274348E-02
siesta:        137  0.713579E-01 -0.214074E+00  0.142716E+00   0.274348E-02
siesta:        138  0.142716E+00 -0.214074E+00  0.142716E+00   0.274348E-02
siesta:        139  0.214074E+00 -0.214074E+00  0.142716E+00   0.274348E-02
siesta:        140  0.285432E+00 -0.214074E+00  0.142716E+00   0.274348E-02
siesta:        141 -0.285432E+00 -0.142716E+00  0.142716E+00   0.274348E-02
siesta:        142 -0.214074E+00 -0.142716E+00  0.142716E+00   0.274348E-02
siesta:        143 -0.142716E+00 -0.142716E+00  0.142716E+00   0.274348E-02
siesta:        144 -0.713579E-01 -0.142716E+00  0.142716E+00   0.274348E-02
siesta:        145  0.000000E+00 -0.142716E+00  0.142716E+00   0.274348E-02
siesta:        146  0.713579E-01 -0.142716E+00  0.142716E+00   0.274348E-02
siesta:        147  0.142716E+00 -0.142716E+00  0.142716E+00   0.274348E-02
siesta:        148  0.214074E+00 -0.142716E+00  0.142716E+00   0.274348E-02
siesta:        149  0.285432E+00 -0.142716E+00  0.142716E+00   0.274348E-02
siesta:        150 -0.285432E+00 -0.713579E-01  0.142716E+00   0.274348E-02
siesta:        151 -0.214074E+00 -0.713579E-01  0.142716E+00   0.274348E-02
siesta:        152 -0.142716E+00 -0.713579E-01  0.142716E+00   0.274348E-02
siesta:        153 -0.713579E-01 -0.713579E-01  0.142716E+00   0.274348E-02
siesta:        154  0.000000E+00 -0.713579E-01  0.142716E+00   0.274348E-02
siesta:        155  0.713579E-01 -0.713579E-01  0.142716E+00   0.274348E-02
siesta:        156  0.142716E+00 -0.713579E-01  0.142716E+00   0.274348E-02
siesta:        157  0.214074E+00 -0.713579E-01  0.142716E+00   0.274348E-02
siesta:        158  0.285432E+00 -0.713579E-01  0.142716E+00   0.274348E-02
siesta:        159 -0.285432E+00  0.000000E+00  0.142716E+00   0.274348E-02
siesta:        160 -0.214074E+00  0.000000E+00  0.142716E+00   0.274348E-02
siesta:        161 -0.142716E+00  0.000000E+00  0.142716E+00   0.274348E-02
siesta:        162 -0.713579E-01  0.000000E+00  0.142716E+00   0.274348E-02
siesta:        163  0.000000E+00  0.000000E+00  0.142716E+00   0.274348E-02
siesta:        164  0.713579E-01  0.000000E+00  0.142716E+00   0.274348E-02
siesta:        165  0.142716E+00  0.000000E+00  0.142716E+00   0.274348E-02
siesta:        166  0.214074E+00  0.000000E+00  0.142716E+00   0.274348E-02
siesta:        167  0.285432E+00  0.000000E+00  0.142716E+00   0.274348E-02
siesta:        168 -0.285432E+00  0.713579E-01  0.142716E+00   0.274348E-02
siesta:        169 -0.214074E+00  0.713579E-01  0.142716E+00   0.274348E-02
siesta:        170 -0.142716E+00  0.713579E-01  0.142716E+00   0.274348E-02
siesta:        171 -0.713579E-01  0.713579E-01  0.142716E+00   0.274348E-02
siesta:        172  0.000000E+00  0.713579E-01  0.142716E+00   0.274348E-02
siesta:        173  0.713579E-01  0.713579E-01  0.142716E+00   0.274348E-02
siesta:        174  0.142716E+00  0.713579E-01  0.142716E+00   0.274348E-02
siesta:        175  0.214074E+00  0.713579E-01  0.142716E+00   0.274348E-02
siesta:        176  0.285432E+00  0.713579E-01  0.142716E+00   0.274348E-02
siesta:        177 -0.285432E+00  0.142716E+00  0.142716E+00   0.274348E-02
siesta:        178 -0.214074E+00  0.142716E+00  0.142716E+00   0.274348E-02
siesta:        179 -0.142716E+00  0.142716E+00  0.142716E+00   0.274348E-02
siesta:        180 -0.713579E-01  0.142716E+00  0.142716E+00   0.274348E-02
siesta:        181  0.000000E+00  0.142716E+00  0.142716E+00   0.274348E-02
siesta:        182  0.713579E-01  0.142716E+00  0.142716E+00   0.274348E-02
siesta:        183  0.142716E+00  0.142716E+00  0.142716E+00   0.274348E-02
siesta:        184  0.214074E+00  0.142716E+00  0.142716E+00   0.274348E-02
siesta:        185  0.285432E+00  0.142716E+00  0.142716E+00   0.274348E-02
siesta:        186 -0.285432E+00  0.214074E+00  0.142716E+00   0.274348E-02
siesta:        187 -0.214074E+00  0.214074E+00  0.142716E+00   0.274348E-02
siesta:        188 -0.142716E+00  0.214074E+00  0.142716E+00   0.274348E-02
siesta:        189 -0.713579E-01  0.214074E+00  0.142716E+00   0.274348E-02
siesta:        190  0.000000E+00  0.214074E+00  0.142716E+00   0.274348E-02
siesta:        191  0.713579E-01  0.214074E+00  0.142716E+00   0.274348E-02
siesta:        192  0.142716E+00  0.214074E+00  0.142716E+00   0.274348E-02
siesta:        193  0.214074E+00  0.214074E+00  0.142716E+00   0.274348E-02
siesta:        194  0.285432E+00  0.214074E+00  0.142716E+00   0.274348E-02
siesta:        195 -0.285432E+00  0.285432E+00  0.142716E+00   0.274348E-02
siesta:        196 -0.214074E+00  0.285432E+00  0.142716E+00   0.274348E-02
siesta:        197 -0.142716E+00  0.285432E+00  0.142716E+00   0.274348E-02
siesta:        198 -0.713579E-01  0.285432E+00  0.142716E+00   0.274348E-02
siesta:        199  0.000000E+00  0.285432E+00  0.142716E+00   0.274348E-02
siesta:        200  0.713579E-01  0.285432E+00  0.142716E+00   0.274348E-02
siesta:        201  0.142716E+00  0.285432E+00  0.142716E+00   0.274348E-02
siesta:        202  0.214074E+00  0.285432E+00  0.142716E+00   0.274348E-02
siesta:        203  0.285432E+00  0.285432E+00  0.142716E+00   0.274348E-02
siesta:        204 -0.285432E+00 -0.285432E+00  0.214074E+00   0.274348E-02
siesta:        205 -0.214074E+00 -0.285432E+00  0.214074E+00   0.274348E-02
siesta:        206 -0.142716E+00 -0.285432E+00  0.214074E+00   0.274348E-02
siesta:        207 -0.713579E-01 -0.285432E+00  0.214074E+00   0.274348E-02
siesta:        208  0.000000E+00 -0.285432E+00  0.214074E+00   0.274348E-02
siesta:        209  0.713579E-01 -0.285432E+00  0.214074E+00   0.274348E-02
siesta:        210  0.142716E+00 -0.285432E+00  0.214074E+00   0.274348E-02
siesta:        211  0.214074E+00 -0.285432E+00  0.214074E+00   0.274348E-02
siesta:        212  0.285432E+00 -0.285432E+00  0.214074E+00   0.274348E-02
siesta:        213 -0.285432E+00 -0.214074E+00  0.214074E+00   0.274348E-02
siesta:        214 -0.214074E+00 -0.214074E+00  0.214074E+00   0.274348E-02
siesta:        215 -0.142716E+00 -0.214074E+00  0.214074E+00   0.274348E-02
siesta:        216 -0.713579E-01 -0.214074E+00  0.214074E+00   0.274348E-02
siesta:        217  0.000000E+00 -0.214074E+00  0.214074E+00   0.274348E-02
siesta:        218  0.713579E-01 -0.214074E+00  0.214074E+00   0.274348E-02
siesta:        219  0.142716E+00 -0.214074E+00  0.214074E+00   0.274348E-02
siesta:        220  0.214074E+00 -0.214074E+00  0.214074E+00   0.274348E-02
siesta:        221  0.285432E+00 -0.214074E+00  0.214074E+00   0.274348E-02
siesta:        222 -0.285432E+00 -0.142716E+00  0.214074E+00   0.274348E-02
siesta:        223 -0.214074E+00 -0.142716E+00  0.214074E+00   0.274348E-02
siesta:        224 -0.142716E+00 -0.142716E+00  0.214074E+00   0.274348E-02
siesta:        225 -0.713579E-01 -0.142716E+00  0.214074E+00   0.274348E-02
siesta:        226  0.000000E+00 -0.142716E+00  0.214074E+00   0.274348E-02
siesta:        227  0.713579E-01 -0.142716E+00  0.214074E+00   0.274348E-02
siesta:        228  0.142716E+00 -0.142716E+00  0.214074E+00   0.274348E-02
siesta:        229  0.214074E+00 -0.142716E+00  0.214074E+00   0.274348E-02
siesta:        230  0.285432E+00 -0.142716E+00  0.214074E+00   0.274348E-02
siesta:        231 -0.285432E+00 -0.713579E-01  0.214074E+00   0.274348E-02
siesta:        232 -0.214074E+00 -0.713579E-01  0.214074E+00   0.274348E-02
siesta:        233 -0.142716E+00 -0.713579E-01  0.214074E+00   0.274348E-02
siesta:        234 -0.713579E-01 -0.713579E-01  0.214074E+00   0.274348E-02
siesta:        235  0.000000E+00 -0.713579E-01  0.214074E+00   0.274348E-02
siesta:        236  0.713579E-01 -0.713579E-01  0.214074E+00   0.274348E-02
siesta:        237  0.142716E+00 -0.713579E-01  0.214074E+00   0.274348E-02
siesta:        238  0.214074E+00 -0.713579E-01  0.214074E+00   0.274348E-02
siesta:        239  0.285432E+00 -0.713579E-01  0.214074E+00   0.274348E-02
siesta:        240 -0.285432E+00  0.000000E+00  0.214074E+00   0.274348E-02
siesta:        241 -0.214074E+00  0.000000E+00  0.214074E+00   0.274348E-02
siesta:        242 -0.142716E+00  0.000000E+00  0.214074E+00   0.274348E-02
siesta:        243 -0.713579E-01  0.000000E+00  0.214074E+00   0.274348E-02
siesta:        244  0.000000E+00  0.000000E+00  0.214074E+00   0.274348E-02
siesta:        245  0.713579E-01  0.000000E+00  0.214074E+00   0.274348E-02
siesta:        246  0.142716E+00  0.000000E+00  0.214074E+00   0.274348E-02
siesta:        247  0.214074E+00  0.000000E+00  0.214074E+00   0.274348E-02
siesta:        248  0.285432E+00  0.000000E+00  0.214074E+00   0.274348E-02
siesta:        249 -0.285432E+00  0.713579E-01  0.214074E+00   0.274348E-02
siesta:        250 -0.214074E+00  0.713579E-01  0.214074E+00   0.274348E-02
siesta:        251 -0.142716E+00  0.713579E-01  0.214074E+00   0.274348E-02
siesta:        252 -0.713579E-01  0.713579E-01  0.214074E+00   0.274348E-02
siesta:        253  0.000000E+00  0.713579E-01  0.214074E+00   0.274348E-02
siesta:        254  0.713579E-01  0.713579E-01  0.214074E+00   0.274348E-02
siesta:        255  0.142716E+00  0.713579E-01  0.214074E+00   0.274348E-02
siesta:        256  0.214074E+00  0.713579E-01  0.214074E+00   0.274348E-02
siesta:        257  0.285432E+00  0.713579E-01  0.214074E+00   0.274348E-02
siesta:        258 -0.285432E+00  0.142716E+00  0.214074E+00   0.274348E-02
siesta:        259 -0.214074E+00  0.142716E+00  0.214074E+00   0.274348E-02
siesta:        260 -0.142716E+00  0.142716E+00  0.214074E+00   0.274348E-02
siesta:        261 -0.713579E-01  0.142716E+00  0.214074E+00   0.274348E-02
siesta:        262  0.000000E+00  0.142716E+00  0.214074E+00   0.274348E-02
siesta:        263  0.713579E-01  0.142716E+00  0.214074E+00   0.274348E-02
siesta:        264  0.142716E+00  0.142716E+00  0.214074E+00   0.274348E-02
siesta:        265  0.214074E+00  0.142716E+00  0.214074E+00   0.274348E-02
siesta:        266  0.285432E+00  0.142716E+00  0.214074E+00   0.274348E-02
siesta:        267 -0.285432E+00  0.214074E+00  0.214074E+00   0.274348E-02
siesta:        268 -0.214074E+00  0.214074E+00  0.214074E+00   0.274348E-02
siesta:        269 -0.142716E+00  0.214074E+00  0.214074E+00   0.274348E-02
siesta:        270 -0.713579E-01  0.214074E+00  0.214074E+00   0.274348E-02
siesta:        271  0.000000E+00  0.214074E+00  0.214074E+00   0.274348E-02
siesta:        272  0.713579E-01  0.214074E+00  0.214074E+00   0.274348E-02
siesta:        273  0.142716E+00  0.214074E+00  0.214074E+00   0.274348E-02
siesta:        274  0.214074E+00  0.214074E+00  0.214074E+00   0.274348E-02
siesta:        275  0.285432E+00  0.214074E+00  0.214074E+00   0.274348E-02
siesta:        276 -0.285432E+00  0.285432E+00  0.214074E+00   0.274348E-02
siesta:        277 -0.214074E+00  0.285432E+00  0.214074E+00   0.274348E-02
siesta:        278 -0.142716E+00  0.285432E+00  0.214074E+00   0.274348E-02
siesta:        279 -0.713579E-01  0.285432E+00  0.214074E+00   0.274348E-02
siesta:        280  0.000000E+00  0.285432E+00  0.214074E+00   0.274348E-02
siesta:        281  0.713579E-01  0.285432E+00  0.214074E+00   0.274348E-02
siesta:        282  0.142716E+00  0.285432E+00  0.214074E+00   0.274348E-02
siesta:        283  0.214074E+00  0.285432E+00  0.214074E+00   0.274348E-02
siesta:        284  0.285432E+00  0.285432E+00  0.214074E+00   0.274348E-02
siesta:        285 -0.285432E+00 -0.285432E+00  0.285432E+00   0.274348E-02
siesta:        286 -0.214074E+00 -0.285432E+00  0.285432E+00   0.274348E-02
siesta:        287 -0.142716E+00 -0.285432E+00  0.285432E+00   0.274348E-02
siesta:        288 -0.713579E-01 -0.285432E+00  0.285432E+00   0.274348E-02
siesta:        289  0.000000E+00 -0.285432E+00  0.285432E+00   0.274348E-02
siesta:        290  0.713579E-01 -0.285432E+00  0.285432E+00   0.274348E-02
siesta:        291  0.142716E+00 -0.285432E+00  0.285432E+00   0.274348E-02
siesta:        292  0.214074E+00 -0.285432E+00  0.285432E+00   0.274348E-02
siesta:        293  0.285432E+00 -0.285432E+00  0.285432E+00   0.274348E-02
siesta:        294 -0.285432E+00 -0.214074E+00  0.285432E+00   0.274348E-02
siesta:        295 -0.214074E+00 -0.214074E+00  0.285432E+00   0.274348E-02
siesta:        296 -0.142716E+00 -0.214074E+00  0.285432E+00   0.274348E-02
siesta:        297 -0.713579E-01 -0.214074E+00  0.285432E+00   0.274348E-02
siesta:        298  0.000000E+00 -0.214074E+00  0.285432E+00   0.274348E-02
siesta:        299  0.713579E-01 -0.214074E+00  0.285432E+00   0.274348E-02
siesta:        300  0.142716E+00 -0.214074E+00  0.285432E+00   0.274348E-02
siesta:        301  0.214074E+00 -0.214074E+00  0.285432E+00   0.274348E-02
siesta:        302  0.285432E+00 -0.214074E+00  0.285432E+00   0.274348E-02
siesta:        303 -0.285432E+00 -0.142716E+00  0.285432E+00   0.274348E-02
siesta:        304 -0.214074E+00 -0.142716E+00  0.285432E+00   0.274348E-02
siesta:        305 -0.142716E+00 -0.142716E+00  0.285432E+00   0.274348E-02
siesta:        306 -0.713579E-01 -0.142716E+00  0.285432E+00   0.274348E-02
siesta:        307  0.000000E+00 -0.142716E+00  0.285432E+00   0.274348E-02
siesta:        308  0.713579E-01 -0.142716E+00  0.285432E+00   0.274348E-02
siesta:        309  0.142716E+00 -0.142716E+00  0.285432E+00   0.274348E-02
siesta:        310  0.214074E+00 -0.142716E+00  0.285432E+00   0.274348E-02
siesta:        311  0.285432E+00 -0.142716E+00  0.285432E+00   0.274348E-02
siesta:        312 -0.285432E+00 -0.713579E-01  0.285432E+00   0.274348E-02
siesta:        313 -0.214074E+00 -0.713579E-01  0.285432E+00   0.274348E-02
siesta:        314 -0.142716E+00 -0.713579E-01  0.285432E+00   0.274348E-02
siesta:        315 -0.713579E-01 -0.713579E-01  0.285432E+00   0.274348E-02
siesta:        316  0.000000E+00 -0.713579E-01  0.285432E+00   0.274348E-02
siesta:        317  0.713579E-01 -0.713579E-01  0.285432E+00   0.274348E-02
siesta:        318  0.142716E+00 -0.713579E-01  0.285432E+00   0.274348E-02
siesta:        319  0.214074E+00 -0.713579E-01  0.285432E+00   0.274348E-02
siesta:        320  0.285432E+00 -0.713579E-01  0.285432E+00   0.274348E-02
siesta:        321 -0.285432E+00  0.000000E+00  0.285432E+00   0.274348E-02
siesta:        322 -0.214074E+00  0.000000E+00  0.285432E+00   0.274348E-02
siesta:        323 -0.142716E+00  0.000000E+00  0.285432E+00   0.274348E-02
siesta:        324 -0.713579E-01  0.000000E+00  0.285432E+00   0.274348E-02
siesta:        325  0.000000E+00  0.000000E+00  0.285432E+00   0.274348E-02
siesta:        326  0.713579E-01  0.000000E+00  0.285432E+00   0.274348E-02
siesta:        327  0.142716E+00  0.000000E+00  0.285432E+00   0.274348E-02
siesta:        328  0.214074E+00  0.000000E+00  0.285432E+00   0.274348E-02
siesta:        329  0.285432E+00  0.000000E+00  0.285432E+00   0.274348E-02
siesta:        330 -0.285432E+00  0.713579E-01  0.285432E+00   0.274348E-02
siesta:        331 -0.214074E+00  0.713579E-01  0.285432E+00   0.274348E-02
siesta:        332 -0.142716E+00  0.713579E-01  0.285432E+00   0.274348E-02
siesta:        333 -0.713579E-01  0.713579E-01  0.285432E+00   0.274348E-02
siesta:        334  0.000000E+00  0.713579E-01  0.285432E+00   0.274348E-02
siesta:        335  0.713579E-01  0.713579E-01  0.285432E+00   0.274348E-02
siesta:        336  0.142716E+00  0.713579E-01  0.285432E+00   0.274348E-02
siesta:        337  0.214074E+00  0.713579E-01  0.285432E+00   0.274348E-02
siesta:        338  0.285432E+00  0.713579E-01  0.285432E+00   0.274348E-02
siesta:        339 -0.285432E+00  0.142716E+00  0.285432E+00   0.274348E-02
siesta:        340 -0.214074E+00  0.142716E+00  0.285432E+00   0.274348E-02
siesta:        341 -0.142716E+00  0.142716E+00  0.285432E+00   0.274348E-02
siesta:        342 -0.713579E-01  0.142716E+00  0.285432E+00   0.274348E-02
siesta:        343  0.000000E+00  0.142716E+00  0.285432E+00   0.274348E-02
siesta:        344  0.713579E-01  0.142716E+00  0.285432E+00   0.274348E-02
siesta:        345  0.142716E+00  0.142716E+00  0.285432E+00   0.274348E-02
siesta:        346  0.214074E+00  0.142716E+00  0.285432E+00   0.274348E-02
siesta:        347  0.285432E+00  0.142716E+00  0.285432E+00   0.274348E-02
siesta:        348 -0.285432E+00  0.214074E+00  0.285432E+00   0.274348E-02
siesta:        349 -0.214074E+00  0.214074E+00  0.285432E+00   0.274348E-02
siesta:        350 -0.142716E+00  0.214074E+00  0.285432E+00   0.274348E-02
siesta:        351 -0.713579E-01  0.214074E+00  0.285432E+00   0.274348E-02
siesta:        352  0.000000E+00  0.214074E+00  0.285432E+00   0.274348E-02
siesta:        353  0.713579E-01  0.214074E+00  0.285432E+00   0.274348E-02
siesta:        354  0.142716E+00  0.214074E+00  0.285432E+00   0.274348E-02
siesta:        355  0.214074E+00  0.214074E+00  0.285432E+00   0.274348E-02
siesta:        356  0.285432E+00  0.214074E+00  0.285432E+00   0.274348E-02
siesta:        357 -0.285432E+00  0.285432E+00  0.285432E+00   0.274348E-02
siesta:        358 -0.214074E+00  0.285432E+00  0.285432E+00   0.274348E-02
siesta:        359 -0.142716E+00  0.285432E+00  0.285432E+00   0.274348E-02
siesta:        360 -0.713579E-01  0.285432E+00  0.285432E+00   0.274348E-02
siesta:        361  0.000000E+00  0.285432E+00  0.285432E+00   0.274348E-02
siesta:        362  0.713579E-01  0.285432E+00  0.285432E+00   0.274348E-02
siesta:        363  0.142716E+00  0.285432E+00  0.285432E+00   0.274348E-02
siesta:        364  0.214074E+00  0.285432E+00  0.285432E+00   0.274348E-02
siesta:        365  0.285432E+00  0.285432E+00  0.285432E+00   0.274348E-02

siesta: k-grid: Number of k-points =       365
siesta: k-points from Monkhorst-Pack grid
siesta: k-cutoff (effective) =    23.297 Ang
siesta: k-point supercell and displacements
siesta: k-grid:    9   0   0      0.000
siesta: k-grid:    0   9   0      0.000
siesta: k-grid:    0   0   9      0.000

diag: Algorithm                                     = D&C
diag: Parallel over k                               =   F
diag: Use parallel 2D distribution                  =   T
diag: Parallel block-size                           = 24
diag: Parallel distribution                         =     2 x     4
diag: Used triangular part                          = Lower
diag: Absolute tolerance                            =  0.100E-15
diag: Orthogonalization factor                      =  0.100E-05
diag: Memory factor                                 =  1.0000

superc: Internal auxiliary supercell:     5 x     5 x     5  =     125
superc: Number of atoms, orbitals, and projectors:   1500  23500  25500


ts: **************************************************************
ts: Save H and S matrices                           =    F
ts: Save DM and EDM matrices                        =    F
ts: Fix Hartree potential                           =    F
ts: Only save the overlap matrix S                  =    F
ts: **************************************************************

************************ Begin: TS CHECKS AND WARNINGS ************************
************************ End: TS CHECKS AND WARNINGS **************************


                     ====================================
                        Single-point calculation
                     ====================================

outcoor: Atomic coordinates (fractional):                   
    0.25000000    0.25000000    0.25000000   1       1  O
    0.75000000    0.75000000    0.75000000   1       2  O
    0.75000000    0.75000000    0.25000000   1       3  O
    0.25000000    0.25000000    0.75000000   1       4  O
    0.75000000    0.25000000    0.75000000   1       5  O
    0.25000000    0.75000000    0.25000000   1       6  O
    0.25000000    0.75000000    0.75000000   1       7  O
    0.75000000    0.25000000    0.25000000   1       8  O
    0.00000000    0.00000000    0.00000000   2       9  Zr
    0.00000000    0.50000000    0.50000000   2      10  Zr
    0.50000000    0.00000000    0.50000000   2      11  Zr
    0.50000000    0.50000000    0.00000000   2      12  Zr

superc: Internal auxiliary supercell:     5 x     5 x     5  =     125
superc: Number of atoms, orbitals, and projectors:   1500  23500  25500

outcell: Unit cell vectors (Ang):
        5.177213    0.000000    0.000000
        0.000000    5.177213    0.000000
        0.000000    0.000000    5.177213

outcell: Cell vector modules (Ang)   :    5.177213    5.177213    5.177213
outcell: Cell angles (23,13,12) (deg):     90.0000     90.0000     90.0000
outcell: Cell volume (Ang**3)        :    138.7676
<dSpData1D:S at geom step 0
  <sparsity:sparsity for geom step 0
    nrows_g=188 nrows=24 sparsity=.9675 nnzs=34196, refcount: 7>
  <dData1D:(new from dSpData1D) n=34196, refcount: 1>
refcount: 1>
new_DM -- step:     1
Initializing Density Matrix...

Attempting to read DM from file... Succeeded...
DM from file:
<dSpData2D:IO-DM: ZrO2-G.DM
  <sparsity:IO-DM: ZrO2-G.DM
    nrows_g=188 nrows=24 sparsity=.9675 nnzs=34196, refcount: 1>
  <dData2D:(new from dSpData2D) n=34196 m=2, refcount: 1>
refcount: 1>
DM to be used:
<dSpData2D:Re-structured SpM
  <sparsity:sparsity for geom step 0
    nrows_g=188 nrows=24 sparsity=.9675 nnzs=34196, refcount: 8>
  <dData2D:(new in restruct) n=34196 m=2, refcount: 1>
refcount: 1>
     spin moment: S , {S} =   -0.00000       0.0       0.0  -0.00000
No. of atoms with KB's overlaping orbs in proc 0. Max # of overlaps:      58     413
New grid distribution:   1
           1       1:   40    1:   20    1:   10
           2       1:   40    1:   20   11:   20
           3       1:   40    1:   20   21:   30
           4       1:   40    1:   20   31:   40
           5       1:   40   21:   40    1:   10
           6       1:   40   21:   40   11:   20
           7       1:   40   21:   40   21:   30
           8       1:   40   21:   40   31:   40

InitMesh: MESH =    80 x    80 x    80 =      512000
InitMesh: (bp) =    40 x    40 x    40 =       64000
InitMesh: Mesh cutoff (required, used) =   600.000   659.917 Ry
ExtMesh (bp) on 0 =   144 x   124 x   114 =     2035584
New grid distribution:   2
           1       1:   20   21:   40   21:   40
           2      21:   40    1:   20    1:   20
           3      21:   40    1:   20   21:   40
           4      21:   40   21:   40    1:   20
           5       1:   20    1:   20   21:   40
           6       1:   20    1:   20    1:   20
           7      21:   40   21:   40   21:   40
           8       1:   20   21:   40    1:   20
New grid distribution:   3
           1       1:   20   21:   40   21:   40
           2      21:   40    1:   20    1:   20
           3      21:   40    1:   20   21:   40
           4      21:   40   21:   40    1:   20
           5       1:   20    1:   20   21:   40
           6       1:   20    1:   20    1:   20
           7      21:   40   21:   40   21:   40
           8       1:   20   21:   40    1:   20
Setting up quadratic distribution...
ExtMesh (bp) on 0 =   124 x   124 x   124 =     1906624
PhiOnMesh: Number of (b)points on node 0 =                 8000
PhiOnMesh: nlist on node 0 =               711638

stepf: Fermi-Dirac step function

siesta: Program's energy decomposition (eV):
siesta: Ebs     =     -1653.165794
siesta: Eions   =      8162.654689
siesta: Ena     =       702.718973
siesta: Ekin    =      3884.693819
siesta: Enl     =     -1731.065456
siesta: Eso     =         0.000000
siesta: Eldau   =         0.000000
siesta: DEna    =      -224.855669
siesta: DUscf   =        40.267041
siesta: DUext   =         0.000000
siesta: Enegf   =         0.000000
siesta: Exc     =     -1590.881973
siesta: eta*DQ  =         0.000000
siesta: Emadel  =         0.000000
siesta: Emeta   =         0.000000
siesta: Emolmec =         0.000000
siesta: Ekinion =         0.000000
siesta: Eharris =     -7081.777953
siesta: Etot    =     -7081.777953
siesta: FreeEng =     -7081.777953

        iscf     Eharris(eV)        E_KS(eV)     FreeEng(eV)     dDmax    Ef(eV) dHmax(eV)
   scf:    1    -7081.777953    -7081.777953    -7081.777953  0.000045 -5.435527  0.000448
     spin moment: S , {S} =   -0.00000       0.0       0.0  -0.00000

SCF Convergence by DM+H criterion
max |DM_out - DM_in|         :     0.0000452490
max |H_out - H_in|      (eV) :     0.0004476440
SCF cycle converged after 1 iterations
timer: Routine,Calls,Time,% = IterSCF        1      39.121  65.77

Using DM_out to compute the final energy and forces
No. of atoms with KB's overlaping orbs in proc 0. Max # of overlaps:      58     413

siesta: E_KS(eV) =            -7081.7780

siesta: E_KS - E_eggbox =     -7081.7780
     spin moment: S , {S} =   -0.00000       0.0       0.0  -0.00000

siesta: Atomic forces (eV/Ang):
     1   -0.000000   -0.000000   -0.000000
     2   -0.000000   -0.000000   -0.000000
     3   -0.000000   -0.000000   -0.000000
     4   -0.000000   -0.000000   -0.000000
     5   -0.000000   -0.000000   -0.000000
     6   -0.000000   -0.000000   -0.000000
     7   -0.000000   -0.000000   -0.000000
     8   -0.000000   -0.000000   -0.000000
     9    0.000000   -0.000000    0.000000
    10    0.000000    0.000000    0.000000
    11    0.000000   -0.000000    0.000000
    12    0.000000    0.000000    0.000000
----------------------------------------
   Tot    0.000000    0.000000    0.000000
----------------------------------------
   Max    0.000000
   Res    0.000000    sqrt( Sum f_i^2 / 3N )
----------------------------------------
   Max    0.000000    constrained

Stress-tensor-Voigt (kbar):       -3.00       -3.00       -3.00       -0.00        0.00       -0.00
(Free)E + p*V (eV/cell)    -7081.5177
Target enthalpy (eV/cell)    -7081.7780

siesta: Stress tensor (static) (eV/Ang**3):
        -0.001875   -0.000000    0.000000
        -0.000000   -0.001875    0.000000
        -0.000000    0.000000   -0.001875

siesta: Pressure (static):          3.00483355  kBar

siesta: Stress tensor (total) (eV/Ang**3):
        -0.001875   -0.000000    0.000000
        -0.000000   -0.001875    0.000000
        -0.000000    0.000000   -0.001875

siesta: Pressure (total):          3.00483355  kBar

mulliken: Overlap Populations between Orbitals

                   1        2        3        4        5        6        7        8
                  2s       2s       2py      2pz      2px      2py      2pz      2px     
   1 2s          2.294   -0.160    0.000    0.000    0.000    0.000   -0.000    0.000
   2 2s         -0.160    0.043    0.000   -0.000    0.000    0.000    0.000    0.000
   3 2py         0.000    0.000    1.157    0.000    0.000    0.025    0.000    0.000
   4 2pz        -0.000    0.000    0.000    1.157    0.000    0.000    0.025    0.000
   5 2px         0.000    0.000    0.000    0.000    1.157    0.000    0.000    0.025
   6 2py         0.000    0.000    0.025    0.000    0.000    0.433    0.000    0.000
   7 2pz         0.000   -0.000    0.000    0.025    0.000    0.000    0.433    0.000
   8 2px         0.000    0.000    0.000    0.000    0.025    0.000    0.000    0.433
   9 3dxy        0.000    0.000   -0.000    0.000    0.000    0.000    0.000    0.000
  10 3dyz        0.000    0.000    0.000    0.000    0.000    0.000    0.000    0.000
  11 3dz2        0.000   -0.000    0.000    0.000   -0.000    0.000    0.000    0.000
  12 3dxz        0.000    0.000    0.000    0.000    0.000    0.000    0.000    0.000
  13 3dx2-y2     0.000    0.000    0.000   -0.000    0.000    0.000   -0.000    0.000
  14 2s          0.000    0.000   -0.000   -0.000   -0.000    0.000    0.000    0.000
  15 2s          0.000    0.000    0.000    0.000    0.000    0.000    0.000    0.000
  16 2py        -0.000    0.000    0.000    0.000    0.000   -0.000   -0.000   -0.000
  17 2pz        -0.000    0.000    0.000    0.000    0.000   -0.000   -0.000   -0.000
  18 2px        -0.000    0.000    0.000    0.000    0.000   -0.000   -0.000   -0.000
  19 2py         0.000    0.000   -0.000   -0.000   -0.000    0.000    0.000    0.000
  20 2pz         0.000    0.000   -0.000   -0.000   -0.000    0.000    0.000    0.000
  21 2px         0.000    0.000   -0.000   -0.000   -0.000    0.000    0.000    0.000
  22 3dxy        0.000    0.000   -0.000   -0.000   -0.000    0.000    0.000    0.000
  23 3dyz        0.000    0.000   -0.000   -0.000   -0.000    0.000    0.000    0.000
  24 3dz2        0.000    0.000    0.000    0.000    0.000    0.000    0.000    0.000
  25 3dxz        0.000    0.000   -0.000   -0.000   -0.000    0.000    0.000    0.000
  26 3dx2-y2     0.000    0.000    0.000    0.000    0.000    0.000    0.000    0.000
  27 2s          0.000    0.000    0.000    0.000    0.000   -0.000    0.000   -0.000
  28 2s          0.000    0.000    0.000    0.000    0.000    0.000    0.000    0.000
  29 2py         0.000    0.000   -0.001    0.000   -0.001   -0.000    0.000    0.000
  30 2pz         0.000    0.000    0.000   -0.000    0.000    0.000   -0.000    0.000
  31 2px         0.000    0.000   -0.001    0.000   -0.001    0.000    0.000   -0.000
  32 2py        -0.000    0.000   -0.000    0.000    0.000    0.000    0.000   -0.000
  33 2pz         0.000    0.000    0.000   -0.000    0.000    0.000    0.000    0.000
  34 2px        -0.000    0.000    0.000    0.000   -0.000   -0.000    0.000    0.000
  35 3dxy       -0.000    0.000    0.000    0.000    0.000   -0.000    0.000   -0.000
  36 3dyz        0.000    0.000    0.000    0.000    0.000    0.000   -0.000    0.000
  37 3dz2       -0.000    0.000    0.000    0.000    0.000   -0.000    0.000   -0.000
  38 3dxz        0.000    0.000    0.000    0.000    0.000    0.000   -0.000    0.000
  39 3dx2-y2     0.000    0.000   -0.000    0.000   -0.000    0.000    0.000    0.000
  40 2s         -0.000    0.000    0.000   -0.008    0.000    0.000   -0.001    0.000
  41 2s          0.000   -0.000    0.000    0.002    0.000    0.000    0.000    0.000
  42 2py         0.000    0.000    0.003    0.000    0.000    0.001    0.000    0.000
  43 2pz        -0.008    0.002    0.000   -0.019    0.000    0.000    0.007    0.000
  44 2px         0.000    0.000    0.000    0.000    0.003    0.000    0.000    0.001
  45 2py         0.000    0.000    0.001    0.000    0.000   -0.000    0.000    0.000
  46 2pz        -0.001    0.000    0.000    0.007    0.000    0.000   -0.005    0.000
  47 2px         0.000    0.000    0.000    0.000    0.001    0.000    0.000   -0.000
  48 3dxy        0.000    0.000   -0.000    0.000    0.000   -0.000    0.000    0.000
  49 3dyz        0.000    0.000    0.000    0.000    0.000    0.000    0.000    0.000
  50 3dz2        0.000   -0.000    0.000    0.000    0.000    0.000    0.000   -0.000
  51 3dxz        0.000    0.000    0.000   -0.000    0.000    0.000   -0.000    0.000
  52 3dx2-y2     0.000    0.000    0.000    0.000    0.000    0.000   -0.000   -0.000
  53 2s          0.000    0.000    0.000    0.000    0.000    0.000   -0.000   -0.000
  54 2s          0.000    0.000    0.000    0.000    0.000    0.000    0.000    0.000
  55 2py         0.000    0.000   -0.000    0.000    0.000   -0.000    0.000    0.000
  56 2pz         0.000    0.000    0.000   -0.001   -0.001    0.000   -0.000    0.000
  57 2px         0.000    0.000    0.000   -0.001   -0.001    0.000    0.000   -0.000
  58 2py         0.000    0.000   -0.000    0.000    0.000    0.000    0.000    0.000
  59 2pz        -0.000    0.000    0.000   -0.000    0.000    0.000    0.000   -0.000
  60 2px        -0.000    0.000    0.000    0.000   -0.000    0.000   -0.000    0.000
  61 3dxy        0.000    0.000    0.000    0.000    0.000   -0.000    0.000    0.000
  62 3dyz        0.000    0.000    0.000    0.000    0.000   -0.000    0.000    0.000
  63 3dz2       -0.000    0.000    0.000    0.000   -0.000    0.000   -0.000    0.000
  64 3dxz       -0.000    0.000    0.000    0.000    0.000    0.000   -0.000   -0.000
  65 3dx2-y2    -0.000    0.000    0.000    0.000    0.000    0.000    0.000   -0.000
  66 2s         -0.000    0.000   -0.008    0.000    0.000   -0.001    0.000    0.000
  67 2s          0.000   -0.000    0.002    0.000    0.000    0.000    0.000    0.000
  68 2py        -0.008    0.002   -0.019    0.000    0.000    0.007    0.000    0.000
  69 2pz         0.000    0.000    0.000    0.003    0.000    0.000    0.001    0.000
  70 2px         0.000    0.000    0.000    0.000    0.003    0.000    0.000    0.001
  71 2py        -0.001    0.000    0.007    0.000    0.000   -0.005    0.000    0.000
  72 2pz         0.000    0.000    0.000    0.001    0.000    0.000   -0.000    0.000
  73 2px         0.000    0.000    0.000    0.000    0.001    0.000    0.000   -0.000
  74 3dxy        0.000    0.000    0.000    0.000    0.000    0.000    0.000    0.000
  75 3dyz        0.000    0.000    0.000    0.000    0.000    0.000    0.000    0.000
  76 3dz2        0.000   -0.000    0.000    0.000    0.000    0.000    0.000    0.000
  77 3dxz        0.000    0.000    0.000    0.000    0.000    0.000    0.000    0.000
  78 3dx2-y2     0.000   -0.000    0.000    0.000    0.000    0.000    0.000    0.000
  79 2s          0.000    0.000    0.000    0.000    0.000   -0.000   -0.000    0.000
  80 2s          0.000    0.000    0.000    0.000    0.000    0.000    0.000    0.000
  81 2py         0.000    0.000   -0.001   -0.001    0.000   -0.000    0.000    0.000
  82 2pz         0.000    0.000   -0.001   -0.001    0.000    0.000   -0.000    0.000
  83 2px         0.000    0.000    0.000    0.000   -0.000    0.000    0.000   -0.000
  84 2py        -0.000    0.000   -0.000    0.000    0.000    0.000   -0.000    0.000
  85 2pz        -0.000    0.000    0.000   -0.000    0.000   -0.000    0.000    0.000
  86 2px         0.000    0.000    0.000    0.000   -0.000    0.000    0.000    0.000
  87 3dxy        0.000    0.000    0.000    0.000    0.000    0.000    0.000   -0.000
  88 3dyz       -0.000    0.000    0.000    0.000    0.000   -0.000   -0.000    0.000
  89 3dz2       -0.000    0.000   -0.000    0.000    0.000    0.000   -0.000    0.000
  90 3dxz        0.000    0.000    0.000    0.000    0.000    0.000    0.000   -0.000
  91 3dx2-y2    -0.000    0.000    0.000    0.000    0.000   -0.000    0.000    0.000
  92 2s         -0.000    0.000    0.000    0.000   -0.008    0.000    0.000   -0.001
  93 2s          0.000   -0.000    0.000    0.000    0.002    0.000    0.000    0.000
  94 2py         0.000    0.000    0.003    0.000    0.000    0.001    0.000    0.000
  95 2pz         0.000    0.000    0.000    0.003    0.000    0.000    0.001    0.000
  96 2px        -0.008    0.002    0.000    0.000   -0.019    0.000    0.000    0.007
  97 2py         0.000    0.000    0.001    0.000    0.000   -0.000    0.000    0.000
  98 2pz         0.000    0.000    0.000    0.001    0.000    0.000   -0.000    0.000
  99 2px        -0.001    0.000    0.000    0.000    0.007    0.000    0.000   -0.005
 100 3dxy        0.000    0.000    0.000    0.000    0.000    0.000    0.000    0.000
 101 3dyz        0.000    0.000    0.000    0.000    0.000    0.000    0.000    0.000
 102 3dz2        0.000   -0.000    0.000    0.000    0.000    0.000    0.000    0.000
 103 3dxz        0.000    0.000    0.000    0.000    0.000    0.000    0.000    0.000
 104 3dx2-y2     0.000   -0.000    0.000    0.000    0.000    0.000    0.000    0.000
 105 5s         -0.004    0.001    0.004    0.004    0.004    0.001    0.001    0.001
 106 5s         -0.000   -0.000   -0.002   -0.002   -0.002   -0.000   -0.000   -0.000
 107 4py        -0.001    0.000   -0.001   -0.004   -0.004    0.000    0.000    0.000
 108 4pz        -0.001    0.000   -0.004   -0.001   -0.004    0.000    0.000    0.000
 109 4px        -0.001    0.000   -0.004   -0.004   -0.001    0.000    0.000    0.000
 110 4py        -0.000    0.000   -0.000   -0.000   -0.000   -0.000   -0.000   -0.000
 111 4pz        -0.000    0.000   -0.000   -0.000   -0.000   -0.000   -0.000   -0.000
 112 4px        -0.000    0.000   -0.000   -0.000   -0.000   -0.000   -0.000   -0.000
 113 5py        -0.001    0.000   -0.000    0.001    0.001    0.000    0.000    0.000
 114 5pz        -0.001    0.000    0.001   -0.000    0.001    0.000    0.000    0.000
 115 5px        -0.001    0.000    0.001    0.001   -0.000    0.000    0.000    0.000
 116 4dxy       -0.003    0.001    0.002    0.007    0.002    0.001    0.004    0.001
 117 4dyz       -0.003    0.001    0.002    0.002    0.007    0.001    0.001    0.004
 118 4dz2        0.000    0.000    0.001    0.006    0.001    0.001    0.003    0.001
 119 4dxz       -0.003    0.001    0.007    0.002    0.002    0.004    0.001    0.001
 120 4dx2-y2     0.000    0.000    0.004    0.000    0.004    0.002    0.000    0.002
 121 4dxy        0.001   -0.000    0.000    0.001    0.000    0.000   -0.000    0.000
 122 4dyz        0.001   -0.000    0.000    0.000    0.001    0.000    0.000   -0.000
 123 4dz2        0.000    0.000    0.000    0.000    0.000   -0.000   -0.000   -0.000
 124 4dxz        0.001   -0.000    0.001    0.000    0.000   -0.000    0.000    0.000
 125 4dx2-y2     0.000    0.000    0.000    0.000    0.000   -0.000    0.000   -0.000
 126 5s         -0.004    0.001    0.004    0.004    0.004    0.001    0.001    0.001
 127 5s         -0.000   -0.000   -0.002   -0.002   -0.002   -0.000   -0.000   -0.000
 128 4py        -0.001    0.000   -0.001   -0.004   -0.004    0.000    0.000    0.000
 129 4pz        -0.001    0.000   -0.004   -0.001   -0.004    0.000    0.000    0.000
 130 4px        -0.001    0.000   -0.004   -0.004   -0.001    0.000    0.000    0.000
 131 4py        -0.000    0.000   -0.000   -0.000   -0.000   -0.000   -0.000   -0.000
 132 4pz        -0.000    0.000   -0.000   -0.000   -0.000   -0.000   -0.000   -0.000
 133 4px        -0.000    0.000   -0.000   -0.000   -0.000   -0.000   -0.000   -0.000
 134 5py        -0.001    0.000   -0.000    0.001    0.001    0.000    0.000    0.000
 135 5pz        -0.001    0.000    0.001   -0.000    0.001    0.000    0.000    0.000
 136 5px        -0.001    0.000    0.001    0.001   -0.000    0.000    0.000    0.000
 137 4dxy       -0.003    0.001    0.002    0.007    0.002    0.001    0.004    0.001
 138 4dyz       -0.003    0.001    0.002    0.002    0.007    0.001    0.001    0.004
 139 4dz2        0.000    0.000    0.001    0.006    0.001    0.001    0.003    0.001
 140 4dxz       -0.003    0.001    0.007    0.002    0.002    0.004    0.001    0.001
 141 4dx2-y2     0.000   -0.000    0.004   -0.000    0.004    0.002    0.000    0.002
 142 4dxy        0.001   -0.000    0.000    0.001    0.000    0.000   -0.000    0.000
 143 4dyz        0.001   -0.000    0.000    0.000    0.001    0.000    0.000   -0.000
 144 4dz2       -0.000   -0.000    0.000    0.000    0.000   -0.000   -0.000   -0.000
 145 4dxz        0.001   -0.000    0.001    0.000    0.000   -0.000    0.000    0.000
 146 4dx2-y2    -0.000   -0.000    0.000    0.000    0.000   -0.000    0.000   -0.000
 147 5s         -0.004    0.001    0.004    0.004    0.004    0.001    0.001    0.001
 148 5s         -0.000   -0.000   -0.002   -0.002   -0.002   -0.000   -0.000   -0.000
 149 4py        -0.001    0.000   -0.001   -0.004   -0.004    0.000    0.000    0.000
 150 4pz        -0.001    0.000   -0.004   -0.001   -0.004    0.000    0.000    0.000
 151 4px        -0.001    0.000   -0.004   -0.004   -0.001    0.000    0.000    0.000
 152 4py        -0.000    0.000   -0.000   -0.000   -0.000   -0.000   -0.000   -0.000
 153 4pz        -0.000    0.000   -0.000   -0.000   -0.000   -0.000   -0.000   -0.000
 154 4px        -0.000    0.000   -0.000   -0.000   -0.000   -0.000   -0.000   -0.000
 155 5py        -0.001    0.000   -0.000    0.001    0.001    0.000    0.000    0.000
 156 5pz        -0.001    0.000    0.001   -0.000    0.001    0.000    0.000    0.000
 157 5px        -0.001    0.000    0.001    0.001   -0.000    0.000    0.000    0.000
 158 4dxy       -0.003    0.001    0.002    0.007    0.002    0.001    0.004    0.001
 159 4dyz       -0.003    0.001    0.002    0.002    0.007    0.001    0.001    0.004
 160 4dz2       -0.000    0.000    0.001    0.006    0.001    0.001    0.003    0.001
 161 4dxz       -0.003    0.001    0.007    0.002    0.002    0.004    0.001    0.001
 162 4dx2-y2    -0.000    0.000    0.004    0.000    0.004    0.002   -0.000    0.002
 163 4dxy        0.001   -0.000    0.000    0.001    0.000    0.000   -0.000    0.000
 164 4dyz        0.001   -0.000    0.000    0.000    0.001    0.000    0.000   -0.000
 165 4dz2       -0.000   -0.000    0.000    0.000    0.000   -0.000   -0.000   -0.000
 166 4dxz        0.001   -0.000    0.001    0.000    0.000   -0.000    0.000    0.000
 167 4dx2-y2     0.000    0.000    0.000   -0.000    0.000   -0.000   -0.000   -0.000
 168 5s         -0.004    0.001    0.004    0.004    0.004    0.001    0.001    0.001
 169 5s         -0.000   -0.000   -0.002   -0.002   -0.002   -0.000   -0.000   -0.000
 170 4py        -0.001    0.000   -0.001   -0.004   -0.004    0.000    0.000    0.000
 171 4pz        -0.001    0.000   -0.004   -0.001   -0.004    0.000    0.000    0.000
 172 4px        -0.001    0.000   -0.004   -0.004   -0.001    0.000    0.000    0.000
 173 4py        -0.000    0.000   -0.000   -0.000   -0.000   -0.000   -0.000   -0.000
 174 4pz        -0.000    0.000   -0.000   -0.000   -0.000   -0.000   -0.000   -0.000
 175 4px        -0.000    0.000   -0.000   -0.000   -0.000   -0.000   -0.000   -0.000
 176 5py        -0.001    0.000   -0.000    0.001    0.001    0.000    0.000    0.000
 177 5pz        -0.001    0.000    0.001   -0.000    0.001    0.000    0.000    0.000
 178 5px        -0.001    0.000    0.001    0.001   -0.000    0.000    0.000    0.000
 179 4dxy       -0.003    0.001    0.002    0.007    0.002    0.001    0.004    0.001
 180 4dyz       -0.003    0.001    0.002    0.002    0.007    0.001    0.001    0.004
 181 4dz2       -0.000   -0.000    0.001    0.006    0.001    0.001    0.003    0.001
 182 4dxz       -0.003    0.001    0.007    0.002    0.002    0.004    0.001    0.001
 183 4dx2-y2     0.000    0.000    0.004    0.000    0.004    0.002    0.000    0.002
 184 4dxy        0.001   -0.000    0.000    0.001    0.000    0.000   -0.000    0.000
 185 4dyz        0.001   -0.000    0.000    0.000    0.001    0.000    0.000   -0.000
 186 4dz2        0.000    0.000    0.000    0.000    0.000   -0.000   -0.000   -0.000
 187 4dxz        0.001   -0.000    0.001    0.000    0.000   -0.000    0.000    0.000
 188 4dx2-y2     0.000    0.000    0.000    0.000    0.000   -0.000    0.000   -0.000

                   9       10       11       12       13       14       15       16
                  3dxy     3dyz     3dz2     3dxz     3dx2-y2  2s       2s       2py     
   1 2s          0.000    0.000    0.000    0.000    0.000    0.000    0.000   -0.000
   2 2s          0.000    0.000   -0.000    0.000    0.000    0.000    0.000    0.000
   3 2py         0.000   -0.000    0.000    0.000    0.000   -0.000    0.000    0.000
   4 2pz         0.000    0.000   -0.000   -0.000    0.000   -0.000    0.000    0.000
   5 2px         0.000    0.000    0.000   -0.000   -0.000   -0.000    0.000    0.000
   6 2py        -0.000   -0.000    0.000    0.000    0.000    0.000    0.000   -0.000
   7 2pz         0.000    0.000   -0.000   -0.000    0.000    0.000    0.000   -0.000
   8 2px         0.000    0.000   -0.000   -0.000   -0.000    0.000    0.000   -0.000
   9 3dxy        0.000    0.000    0.000    0.000    0.000    0.000    0.000   -0.000
  10 3dyz        0.000    0.000    0.000    0.000    0.000    0.000    0.000   -0.000
  11 3dz2        0.000    0.000    0.000    0.000   -0.000    0.000    0.000    0.000
  12 3dxz        0.000    0.000    0.000    0.000   -0.000    0.000    0.000   -0.000
  13 3dx2-y2     0.000    0.000   -0.000   -0.000    0.000    0.000    0.000    0.000
  14 2s          0.000    0.000    0.000    0.000    0.000    2.294   -0.160    0.000
  15 2s          0.000    0.000    0.000    0.000    0.000   -0.160    0.043    0.000
  16 2py        -0.000   -0.000    0.000   -0.000    0.000    0.000    0.000    1.157
  17 2pz        -0.000   -0.000    0.000   -0.000    0.000   -0.000    0.000    0.000
  18 2px        -0.000   -0.000    0.000   -0.000    0.000    0.000    0.000    0.000
  19 2py         0.000    0.000    0.000    0.000    0.000    0.000    0.000    0.025
  20 2pz         0.000    0.000    0.000    0.000    0.000    0.000   -0.000    0.000
  21 2px         0.000    0.000    0.000    0.000    0.000    0.000    0.000    0.000
  22 3dxy        0.000    0.000    0.000    0.000    0.000    0.000    0.000    0.000
  23 3dyz        0.000    0.000    0.000    0.000    0.000    0.000    0.000    0.000
[...]
         45.63  45.63  48.53  48.87  48.97  48.97  53.43  53.84  53.84  56.24
         58.51  58.51  59.16  60.69  61.34  61.37  61.37  62.96  63.40  63.40
         63.96  66.17  67.36  69.21  69.21  69.34  69.94  72.64  72.64  74.53
         74.74  79.24  79.24  83.73  88.84  88.84  90.05  90.74
 360  1 -33.83 -33.82 -33.82 -33.80 -33.64 -33.59 -33.59 -33.55 -33.47 -33.46
        -33.46 -33.45 -24.13 -23.98 -23.98 -23.90 -23.41 -23.40 -23.40 -23.36
        -11.63 -11.59 -11.58 -11.58 -10.92 -10.70 -10.70 -10.47 -10.34 -10.26
        -10.26  -9.80  -9.52  -9.49  -9.30  -9.28  -9.28  -8.99  -8.99  -8.63
         -7.86  -7.80  -7.80  -7.72  -3.56  -3.52  -3.52  -3.52  -2.88  -2.85
         -2.85  -2.80  -1.21  -1.10  -1.10  -0.98  -0.43  -0.27  -0.27  -0.07
          0.51   0.61   0.61   0.81   2.93   3.31   3.31   3.63   5.42   5.46
          5.46   5.47   9.09   9.32   9.32   9.42  11.80  11.80  12.04  12.08
         12.84  12.85  13.23  13.23  14.64  14.64  15.14  15.14  15.32  15.38
         15.55  15.55  16.58  17.05  17.05  17.65  20.38  20.51  20.51  20.59
         21.52  21.91  21.91  22.37  25.48  25.70  25.80  25.80  26.62  27.45
         27.45  28.37  31.11  31.22  31.22  31.38  32.06  32.06  32.11  32.39
         34.80  34.90  34.90  34.91  35.73  35.86  35.90  35.90  37.12  37.64
         37.64  38.34  38.68  39.23  39.23  39.26  39.80  40.42  40.42  40.65
         40.90  41.27  41.27  42.09  42.43  42.43  42.51  42.69  44.01  44.72
         45.10  45.10  47.59  48.26  48.26  49.24  52.22  52.22  52.24  54.00
         60.50  60.91  60.91  61.75  61.86  61.86  63.57  66.27  67.59  67.64
         67.64  69.77  71.71  71.71  72.19  73.75  75.09  75.80  76.40  76.40
         77.26  80.74  80.74  81.44  97.16  98.88  98.88 101.33
 360  2 -33.83 -33.82 -33.82 -33.80 -33.64 -33.59 -33.59 -33.55 -33.47 -33.46
        -33.46 -33.45 -24.13 -23.98 -23.98 -23.90 -23.41 -23.40 -23.40 -23.36
        -11.63 -11.59 -11.58 -11.58 -10.92 -10.70 -10.70 -10.47 -10.34 -10.26
        -10.26  -9.80  -9.52  -9.49  -9.30  -9.28  -9.28  -8.99  -8.99  -8.63
         -7.86  -7.80  -7.80  -7.72  -3.56  -3.52  -3.52  -3.52  -2.88  -2.85
         -2.85  -2.80  -1.21  -1.10  -1.10  -0.98  -0.43  -0.27  -0.27  -0.07
          0.51   0.61   0.61   0.81   2.93   3.31   3.31   3.63   5.42   5.46
          5.46   5.47   9.09   9.32   9.32   9.42  11.80  11.80  12.04  12.08
         12.84  12.85  13.23  13.23  14.64  14.64  15.14  15.14  15.32  15.38
         15.55  15.55  16.58  17.05  17.05  17.65  20.38  20.51  20.51  20.59
         21.52  21.91  21.91  22.37  25.48  25.70  25.80  25.80  26.62  27.45
         27.45  28.37  31.11  31.22  31.22  31.38  32.06  32.06  32.11  32.39
         34.80  34.90  34.90  34.91  35.73  35.86  35.90  35.90  37.12  37.64
         37.64  38.34  38.68  39.23  39.23  39.26  39.80  40.42  40.42  40.65
         40.90  41.27  41.27  42.09  42.43  42.43  42.51  42.69  44.01  44.72
         45.10  45.10  47.59  48.26  48.26  49.24  52.22  52.22  52.24  54.00
         60.50  60.91  60.91  61.75  61.86  61.86  63.57  66.27  67.59  67.64
         67.64  69.77  71.71  71.71  72.19  73.75  75.09  75.80  76.40  76.40
         77.26  80.74  80.74  81.44  97.16  98.88  98.88 101.33
 361  1 -33.79 -33.79 -33.79 -33.77 -33.68 -33.62 -33.62 -33.57 -33.47 -33.46
        -33.46 -33.45 -24.11 -23.93 -23.93 -23.84 -23.46 -23.45 -23.45 -23.39
        -11.68 -11.64 -11.62 -11.62 -10.87 -10.58 -10.58 -10.39 -10.37 -10.37
        -10.27  -9.84  -9.75  -9.47  -9.40  -9.38  -9.38  -8.94  -8.94  -8.56
         -7.78  -7.72  -7.72  -7.61  -3.58  -3.54  -3.54  -3.54  -2.81  -2.77
         -2.77  -2.72  -0.90  -0.82  -0.78  -0.78  -0.69  -0.65  -0.65  -0.40
          0.48   0.59   0.59   0.80   3.01   3.44   3.44   3.81   5.62   5.62
          5.63   5.63   8.68   8.93   8.93   9.02  11.76  11.76  12.01  12.02
         12.93  12.93  13.30  13.30  14.77  14.77  15.16  15.32  15.55  15.55
         15.70  15.70  16.13  16.78  16.78  17.44  20.89  20.94  20.94  20.96
         22.76  23.05  23.05  23.25  24.46  24.80  24.80  24.90  26.79  27.55
         27.55  28.39  31.75  31.84  31.84  32.29  32.29  32.34  32.58  32.92
         33.40  34.42  34.42  34.99  35.18  35.64  35.90  35.90  36.98  37.52
         37.52  38.25  38.74  38.93  39.21  39.21  39.66  40.80  40.80  40.84
         41.13  41.13  41.55  42.14  42.39  42.39  42.51  42.60  43.05  44.13
         44.14  44.14  47.56  49.01  49.01  50.92  51.16  51.16  51.63  51.87
         60.43  60.84  60.84  63.70  64.74  65.52  65.52  67.21  67.21  67.79
         70.75  72.55  74.09  74.46  74.46  76.04  76.09  76.35  76.69  76.69
         78.66  82.30  82.56  82.56  99.60 101.25 102.66 102.66
 361  2 -33.79 -33.79 -33.79 -33.77 -33.68 -33.62 -33.62 -33.57 -33.47 -33.46
        -33.46 -33.45 -24.11 -23.93 -23.93 -23.84 -23.46 -23.45 -23.45 -23.39
        -11.68 -11.64 -11.62 -11.62 -10.87 -10.58 -10.58 -10.39 -10.37 -10.37
        -10.27  -9.84  -9.75  -9.47  -9.40  -9.38  -9.38  -8.94  -8.94  -8.56
         -7.78  -7.72  -7.72  -7.61  -3.58  -3.54  -3.54  -3.54  -2.81  -2.77
         -2.77  -2.72  -0.90  -0.82  -0.78  -0.78  -0.69  -0.65  -0.65  -0.40
          0.48   0.59   0.59   0.80   3.01   3.44   3.44   3.81   5.62   5.62
          5.63   5.63   8.68   8.93   8.93   9.02  11.76  11.76  12.01  12.02
         12.93  12.93  13.30  13.30  14.77  14.77  15.16  15.32  15.55  15.55
         15.70  15.70  16.13  16.78  16.78  17.44  20.89  20.94  20.94  20.96
         22.76  23.05  23.05  23.25  24.46  24.80  24.80  24.90  26.79  27.55
         27.55  28.39  31.75  31.84  31.84  32.29  32.29  32.34  32.58  32.92
         33.40  34.42  34.42  34.99  35.18  35.64  35.90  35.90  36.98  37.52
         37.52  38.25  38.74  38.93  39.21  39.21  39.66  40.80  40.80  40.84
         41.13  41.13  41.55  42.14  42.39  42.39  42.51  42.60  43.05  44.13
         44.14  44.14  47.56  49.01  49.01  50.92  51.16  51.16  51.63  51.87
         60.43  60.84  60.84  63.70  64.74  65.52  65.52  67.21  67.21  67.79
         70.75  72.55  74.09  74.46  74.46  76.04  76.09  76.35  76.69  76.69
         78.66  82.30  82.56  82.56  99.60 101.25 102.66 102.66
 362  1 -33.83 -33.82 -33.82 -33.80 -33.64 -33.59 -33.59 -33.55 -33.47 -33.46
        -33.46 -33.45 -24.13 -23.98 -23.98 -23.90 -23.41 -23.40 -23.40 -23.36
        -11.63 -11.59 -11.58 -11.58 -10.92 -10.70 -10.70 -10.47 -10.34 -10.26
        -10.26  -9.80  -9.52  -9.49  -9.30  -9.28  -9.28  -8.99  -8.99  -8.63
         -7.86  -7.80  -7.80  -7.72  -3.56  -3.52  -3.52  -3.52  -2.88  -2.85
         -2.85  -2.80  -1.21  -1.10  -1.10  -0.98  -0.43  -0.27  -0.27  -0.07
          0.51   0.61   0.61   0.81   2.93   3.31   3.31   3.63   5.42   5.46
          5.46   5.47   9.09   9.32   9.32   9.42  11.80  11.80  12.04  12.08
         12.84  12.85  13.23  13.23  14.64  14.64  15.14  15.14  15.32  15.38
         15.55  15.55  16.58  17.05  17.05  17.65  20.38  20.51  20.51  20.59
         21.52  21.91  21.91  22.37  25.48  25.70  25.80  25.80  26.62  27.45
         27.45  28.37  31.11  31.22  31.22  31.38  32.06  32.06  32.11  32.39
         34.80  34.90  34.90  34.91  35.73  35.86  35.90  35.90  37.12  37.64
         37.64  38.34  38.68  39.23  39.23  39.26  39.80  40.42  40.42  40.65
         40.90  41.27  41.27  42.09  42.43  42.43  42.51  42.69  44.01  44.72
         45.10  45.10  47.59  48.26  48.26  49.24  52.22  52.22  52.24  54.00
         60.50  60.91  60.91  61.75  61.86  61.86  63.57  66.27  67.59  67.64
         67.64  69.77  71.71  71.71  72.19  73.75  75.09  75.80  76.40  76.40
         77.26  80.74  80.74  81.44  97.16  98.88  98.88 101.33
 362  2 -33.83 -33.82 -33.82 -33.80 -33.64 -33.59 -33.59 -33.55 -33.47 -33.46
        -33.46 -33.45 -24.13 -23.98 -23.98 -23.90 -23.41 -23.40 -23.40 -23.36
        -11.63 -11.59 -11.58 -11.58 -10.92 -10.70 -10.70 -10.47 -10.34 -10.26
        -10.26  -9.80  -9.52  -9.49  -9.30  -9.28  -9.28  -8.99  -8.99  -8.63
         -7.86  -7.80  -7.80  -7.72  -3.56  -3.52  -3.52  -3.52  -2.88  -2.85
         -2.85  -2.80  -1.21  -1.10  -1.10  -0.98  -0.43  -0.27  -0.27  -0.07
          0.51   0.61   0.61   0.81   2.93   3.31   3.31   3.63   5.42   5.46
          5.46   5.47   9.09   9.32   9.32   9.42  11.80  11.80  12.04  12.08
         12.84  12.85  13.23  13.23  14.64  14.64  15.14  15.14  15.32  15.38
         15.55  15.55  16.58  17.05  17.05  17.65  20.38  20.51  20.51  20.59
         21.52  21.91  21.91  22.37  25.48  25.70  25.80  25.80  26.62  27.45
         27.45  28.37  31.11  31.22  31.22  31.38  32.06  32.06  32.11  32.39
         34.80  34.90  34.90  34.91  35.73  35.86  35.90  35.90  37.12  37.64
         37.64  38.34  38.68  39.23  39.23  39.26  39.80  40.42  40.42  40.65
         40.90  41.27  41.27  42.09  42.43  42.43  42.51  42.69  44.01  44.72
         45.10  45.10  47.59  48.26  48.26  49.24  52.22  52.22  52.24  54.00
         60.50  60.91  60.91  61.75  61.86  61.86  63.57  66.27  67.59  67.64
         67.64  69.77  71.71  71.71  72.19  73.75  75.09  75.80  76.40  76.40
         77.26  80.74  80.74  81.44  97.16  98.88  98.88 101.33
 363  1 -33.88 -33.87 -33.87 -33.85 -33.57 -33.54 -33.54 -33.50 -33.47 -33.46
        -33.46 -33.45 -24.18 -24.07 -24.07 -24.02 -23.31 -23.31 -23.31 -23.29
        -11.50 -11.46 -11.45 -11.45 -11.04 -10.90 -10.90 -10.75 -10.20 -10.09
        -10.09  -9.70  -9.55  -9.16  -9.12  -9.12  -9.06  -9.02  -9.02  -8.83
         -8.07  -8.04  -8.04  -8.00  -3.50  -3.48  -3.48  -3.46  -3.05  -3.04
         -3.04  -3.02  -1.43  -1.36  -1.36  -1.27   0.01   0.15   0.15   0.35
          0.60   0.66   0.66   0.82   2.69   2.97   2.97   3.16   5.12   5.21
          5.21   5.27   9.96  10.15  10.15  10.29  11.93  11.93  12.10  12.32
         12.64  12.66  13.07  13.07  14.43  14.43  14.73  15.08  15.09  15.12
         15.29  15.29  17.40  17.72  17.72  18.22  19.34  19.55  19.55  19.67
         20.16  20.52  20.52  21.03  26.14  26.31  26.73  26.73  26.85  27.08
         27.08  28.06  28.86  29.34  29.34  29.42  32.33  32.46  32.46  32.67
         35.37  35.69  35.69  36.19  36.56  36.56  36.57  36.71  37.49  37.99
         37.99  38.51  38.74  39.12  39.12  40.06  40.09  40.15  40.15  40.23
         40.49  41.46  41.46  41.86  42.52  42.55  42.55  42.94  44.63  45.63
         45.63  45.63  48.53  48.87  48.97  48.97  53.43  53.84  53.84  56.24
         58.51  58.51  59.16  60.69  61.34  61.37  61.37  62.96  63.40  63.40
         63.96  66.17  67.36  69.21  69.21  69.34  69.94  72.64  72.64  74.53
         74.74  79.24  79.24  83.73  88.84  88.84  90.05  90.74
 363  2 -33.88 -33.87 -33.87 -33.85 -33.57 -33.54 -33.54 -33.50 -33.47 -33.46
        -33.46 -33.45 -24.18 -24.07 -24.07 -24.02 -23.31 -23.31 -23.31 -23.29
        -11.50 -11.46 -11.45 -11.45 -11.04 -10.90 -10.90 -10.75 -10.20 -10.09
        -10.09  -9.70  -9.55  -9.16  -9.12  -9.12  -9.06  -9.02  -9.02  -8.83
         -8.07  -8.04  -8.04  -8.00  -3.50  -3.48  -3.48  -3.46  -3.05  -3.04
         -3.04  -3.02  -1.43  -1.36  -1.36  -1.27   0.01   0.15   0.15   0.35
          0.60   0.66   0.66   0.82   2.69   2.97   2.97   3.16   5.12   5.21
          5.21   5.27   9.96  10.15  10.15  10.29  11.93  11.93  12.10  12.32
         12.64  12.66  13.07  13.07  14.43  14.43  14.73  15.08  15.09  15.12
         15.29  15.29  17.40  17.72  17.72  18.22  19.34  19.55  19.55  19.67
         20.16  20.52  20.52  21.03  26.14  26.31  26.73  26.73  26.85  27.08
         27.08  28.06  28.86  29.34  29.34  29.42  32.33  32.46  32.46  32.67
         35.37  35.69  35.69  36.19  36.56  36.56  36.57  36.71  37.49  37.99
         37.99  38.51  38.74  39.12  39.12  40.06  40.09  40.15  40.15  40.23
         40.49  41.46  41.46  41.86  42.52  42.55  42.55  42.94  44.63  45.63
         45.63  45.63  48.53  48.87  48.97  48.97  53.43  53.84  53.84  56.24
         58.51  58.51  59.16  60.69  61.34  61.37  61.37  62.96  63.40  63.40
         63.96  66.17  67.36  69.21  69.21  69.34  69.94  72.64  72.64  74.53
         74.74  79.24  79.24  83.73  88.84  88.84  90.05  90.74
 364  1 -33.92 -33.91 -33.91 -33.89 -33.51 -33.49 -33.49 -33.47 -33.47 -33.46
        -33.46 -33.45 -24.23 -24.16 -24.16 -24.13 -23.23 -23.23 -23.23 -23.23
        -11.33 -11.29 -11.29 -11.29 -11.13 -11.05 -11.05 -10.97  -9.97  -9.88
         -9.88  -9.61  -9.55  -9.28  -9.28  -9.12  -8.83  -8.80  -8.77  -8.77
         -8.37  -8.35  -8.35  -8.34  -3.45  -3.43  -3.43  -3.42  -3.27  -3.26
         -3.26  -3.26  -1.52  -1.50  -1.50  -1.44   0.40   0.50   0.50   0.67
          0.69   0.72   0.72   0.83   2.36   2.55   2.55   2.63   4.98   5.09
          5.09   5.14  10.78  10.91  10.91  11.14  12.15  12.15  12.18  12.46
         12.48  12.66  12.91  12.91  14.38  14.38  14.43  14.97  15.01  15.05
         15.09  15.09  18.30  18.34  18.52  18.52  18.56  18.56  18.63  18.92
         19.40  19.60  19.60  20.01  25.85  26.37  26.37  26.72  26.81  26.91
         27.11  27.11  27.42  27.65  27.65  27.79  32.34  32.50  32.50  32.71
         36.84  36.97  36.97  37.38  37.51  37.56  37.56  37.77  38.12  38.40
         38.63  38.63  38.83  38.93  38.93  40.17  40.32  40.32  40.50  40.58
         40.70  41.25  41.25  41.37  42.72  42.83  42.83  43.18  43.74  44.58
         44.58  45.00  51.37  51.80  52.45  52.45  55.62  55.62  56.25  57.04
         57.43  57.43  59.04  59.85  60.33  61.16  61.57  61.57  62.03  62.03
         62.11  63.30  64.01  64.93  64.93  65.41  69.53  71.18  71.18  71.91
         73.93  75.99  75.99  79.12  79.50  79.50  79.86  83.00
 364  2 -33.92 -33.91 -33.91 -33.89 -33.51 -33.49 -33.49 -33.47 -33.47 -33.46
        -33.46 -33.45 -24.23 -24.16 -24.16 -24.13 -23.23 -23.23 -23.23 -23.23
        -11.33 -11.29 -11.29 -11.29 -11.13 -11.05 -11.05 -10.97  -9.97  -9.88
         -9.88  -9.61  -9.55  -9.28  -9.28  -9.12  -8.83  -8.80  -8.77  -8.77
         -8.37  -8.35  -8.35  -8.34  -3.45  -3.43  -3.43  -3.42  -3.27  -3.26
         -3.26  -3.26  -1.52  -1.50  -1.50  -1.44   0.40   0.50   0.50   0.67
          0.69   0.72   0.72   0.83   2.36   2.55   2.55   2.63   4.98   5.09
          5.09   5.14  10.78  10.91  10.91  11.14  12.15  12.15  12.18  12.46
         12.48  12.66  12.91  12.91  14.38  14.38  14.43  14.97  15.01  15.05
         15.09  15.09  18.30  18.34  18.52  18.52  18.56  18.56  18.63  18.92
         19.40  19.60  19.60  20.01  25.85  26.37  26.37  26.72  26.81  26.91
         27.11  27.11  27.42  27.65  27.65  27.79  32.34  32.50  32.50  32.71
         36.84  36.97  36.97  37.38  37.51  37.56  37.56  37.77  38.12  38.40
         38.63  38.63  38.83  38.93  38.93  40.17  40.32  40.32  40.50  40.58
         40.70  41.25  41.25  41.37  42.72  42.83  42.83  43.18  43.74  44.58
         44.58  45.00  51.37  51.80  52.45  52.45  55.62  55.62  56.25  57.04
         57.43  57.43  59.04  59.85  60.33  61.16  61.57  61.57  62.03  62.03
         62.11  63.30  64.01  64.93  64.93  65.41  69.53  71.18  71.18  71.91
         73.93  75.99  75.99  79.12  79.50  79.50  79.86  83.00
 365  1 -33.93 -33.93 -33.93 -33.92 -33.47 -33.47 -33.47 -33.46 -33.46 -33.46
        -33.46 -33.46 -24.24 -24.21 -24.21 -24.21 -23.19 -23.19 -23.19 -23.19
        -11.18 -11.18 -11.18 -11.16 -11.16 -11.11 -11.11 -11.11  -9.69  -9.69
         -9.69  -9.58  -9.50  -9.40  -9.40  -9.40  -8.64  -8.64  -8.64  -8.64
         -8.64  -8.58  -8.58  -8.58  -3.41  -3.41  -3.41  -3.41  -3.41  -3.40
         -3.40  -3.40  -1.53  -1.53  -1.53  -1.51   0.70   0.70   0.70   0.77
          0.77   0.77   0.82   0.82   2.14   2.24   2.24   2.24   4.98   5.05
          5.05   5.05  11.34  11.34  11.34  11.56  12.36  12.36  12.37  12.37
         12.37  12.69  12.69  12.69  14.59  14.59  14.59  14.93  14.93  14.93
         14.95  14.95  17.72  17.89  17.89  17.89  19.14  19.14  19.14  19.16
         19.16  19.16  19.38  19.38  25.81  25.81  26.03  26.03  26.03  26.13
         26.13  26.13  27.20  27.56  27.56  27.56  32.32  32.32  32.32  32.47
         37.90  37.90  37.90  37.94  38.44  38.44  38.44  38.59  38.59  38.67
         38.67  38.67  39.02  39.02  39.02  39.93  40.58  40.58  40.58  40.72
         40.72  40.76  40.76  40.76  43.11  43.11  43.11  43.28  43.28  43.80
         43.80  43.80  53.41  55.54  55.54  55.54  56.71  56.71  56.71  59.63
         60.23  60.23  60.23  61.43  61.43  61.43  61.43  61.43  61.93  61.93
         61.93  62.64  62.64  63.13  63.13  63.13  70.45  70.45  70.45  71.21
         71.21  72.37  72.37  72.37  72.85  72.85  72.85  77.24
 365  2 -33.93 -33.93 -33.93 -33.92 -33.47 -33.47 -33.47 -33.46 -33.46 -33.46
        -33.46 -33.46 -24.24 -24.21 -24.21 -24.21 -23.19 -23.19 -23.19 -23.19
        -11.18 -11.18 -11.18 -11.16 -11.16 -11.11 -11.11 -11.11  -9.69  -9.69
         -9.69  -9.58  -9.50  -9.40  -9.40  -9.40  -8.64  -8.64  -8.64  -8.64
         -8.64  -8.58  -8.58  -8.58  -3.41  -3.41  -3.41  -3.41  -3.41  -3.40
         -3.40  -3.40  -1.53  -1.53  -1.53  -1.51   0.70   0.70   0.70   0.77
          0.77   0.77   0.82   0.82   2.14   2.24   2.24   2.24   4.98   5.05
          5.05   5.05  11.34  11.34  11.34  11.56  12.36  12.36  12.37  12.37
         12.37  12.69  12.69  12.69  14.59  14.59  14.59  14.93  14.93  14.93
         14.95  14.95  17.72  17.89  17.89  17.89  19.14  19.14  19.14  19.16
         19.16  19.16  19.38  19.38  25.81  25.81  26.03  26.03  26.03  26.13
         26.13  26.13  27.20  27.56  27.56  27.56  32.32  32.32  32.32  32.47
         37.90  37.90  37.90  37.94  38.44  38.44  38.44  38.59  38.59  38.67
         38.67  38.67  39.02  39.02  39.02  39.93  40.58  40.58  40.58  40.72
         40.72  40.76  40.76  40.76  43.11  43.11  43.11  43.28  43.28  43.80
         43.80  43.80  53.41  55.54  55.54  55.54  56.71  56.71  56.71  59.63
         60.23  60.23  60.23  61.43  61.43  61.43  61.43  61.43  61.93  61.93
         61.93  62.64  62.64  63.13  63.13  63.13  70.45  70.45  70.45  71.21
         71.21  72.37  72.37  72.37  72.85  72.85  72.85  77.24
siesta: Fermi energy =      -5.435527 eV

siesta: Program's energy decomposition (eV):
siesta: Ebs     =     -1653.165794
siesta: Eions   =      8162.654689
siesta: Ena     =       702.718973
siesta: Ekin    =      3884.693819
siesta: Enl     =     -1731.065456
siesta: Eso     =         0.000000
siesta: Eldau   =         0.000000
siesta: DEna    =      -224.855669
siesta: DUscf   =        40.267041
siesta: DUext   =         0.000000
siesta: Enegf   =         0.000000
siesta: Exc     =     -1590.881973
siesta: eta*DQ  =         0.000000
siesta: Emadel  =         0.000000
siesta: Emeta   =         0.000000
siesta: Emolmec =         0.000000
siesta: Ekinion =         0.000000
siesta: Eharris =     -7081.777953
siesta: Etot    =     -7081.777953
siesta: FreeEng =     -7081.777953

siesta: Final energy (eV):
siesta:  Band Struct. =   -1653.165794
siesta:       Kinetic =    3884.693819
siesta:       Hartree =    1231.186085
siesta:       Eldau   =       0.000000
siesta:       Eso     =       0.000000
siesta:    Ext. field =       0.000000
siesta:       Enegf   =       0.000000
siesta:   Exch.-corr. =   -1590.881973
siesta:  Ion-electron =   -6297.869584
siesta:       Ion-ion =   -4308.906300
siesta:       Ekinion =       0.000000
siesta:         Total =   -7081.777953
siesta:         Fermi =      -5.435527

siesta: Stress tensor (static) (eV/Ang**3):
siesta:    -0.001875   -0.000000    0.000000
siesta:    -0.000000   -0.001875    0.000000
siesta:    -0.000000    0.000000   -0.001875

siesta: Cell volume =        138.767607 Ang**3

siesta: Pressure (static):
siesta:                Solid            Molecule  Units
siesta:           0.00002043          0.00002043  Ry/Bohr**3
siesta:           0.00187545          0.00187545  eV/Ang**3
siesta:           3.00483355          3.00483357  kBar
(Free)E+ p_basis*V_orbitals  =       -7076.771914
(Free)Eharris+ p_basis*V_orbitals  =       -7076.771914
     spin moment: S , {S} =   -0.00000       0.0       0.0  -0.00000

>> End of run:  22-JUL-2019  14:02:40
Job completed
