ATOMS
   8          1.29430327          1.29430327          1.29430327
   8          3.88290982          3.88290982          3.88290982
   8          3.88290982          3.88290982          1.29430327
   8          1.29430327          1.29430327          3.88290982
   8          3.88290982          1.29430327          3.88290982
   8          1.29430327          3.88290982          1.29430327
   8          1.29430327          3.88290982          3.88290982
   8          3.88290982          1.29430327          1.29430327
  40          0.00000000          0.00000000          0.00000000
  40          0.00000000          2.58860655          2.58860655
  40          2.58860655          0.00000000          2.58860655
  40          2.58860655          2.58860655          0.00000000
BEGIN_BLOCK_DATAGRID_3D
 DATA_from:ZrO2-G.RHO
 BEGIN_DATAGRID_3D_RHO:spin_1
    10    10    10
  0.0000000E+00  0.0000000E+00  0.0000000E+00
  5.1772130E+00  0.0000000E+00  0.0000000E+00
  0.0000000E+00  5.1772130E+00  0.0000000E+00
  0.0000000E+00  0.0000000E+00  5.1772130E+00
 -5.44664E+00 -3.77768E+00 -1.60066E+00 -7.18292E-01 -5.45047E-01 -5.45047E-01
 -7.18292E-01 -1.60066E+00 -3.77768E+00 -5.44664E+00 -3.77768E+00 -2.86554E+00
 -1.27629E+00 -7.56109E-01 -5.86467E-01 -5.86467E-01 -7.56109E-01 -1.27629E+00
 -2.86554E+00 -3.77768E+00 -1.60066E+00 -1.27629E+00 -1.02644E+00 -9.42004E-01
 -9.49663E-01 -9.49663E-01 -9.42004E-01 -1.02644E+00 -1.27629E+00 -1.60066E+00
 -7.18292E-01 -7.56109E-01 -9.42004E-01 -1.41889E+00 -2.48270E+00 -2.48270E+00
 -1.41889E+00 -9.42004E-01 -7.56109E-01 -7.18292E-01 -5.45047E-01 -5.86467E-01
 -9.49663E-01 -2.48270E+00 -4.29384E+00 -4.29384E+00 -2.48270E+00 -9.49663E-01
 -5.86467E-01 -5.45047E-01 -5.45047E-01 -5.86467E-01 -9.49663E-01 -2.48270E+00
 -4.29384E+00 -4.29384E+00 -2.48270E+00 -9.49663E-01 -5.86467E-01 -5.45047E-01
 -7.18292E-01 -7.56109E-01 -9.42004E-01 -1.41889E+00 -2.48270E+00 -2.48270E+00
 -1.41889E+00 -9.42004E-01 -7.56109E-01 -7.18292E-01 -1.60066E+00 -1.27629E+00
 -1.02644E+00 -9.42004E-01 -9.49663E-01 -9.49663E-01 -9.42004E-01 -1.02644E+00
 -1.27629E+00 -1.60066E+00 -3.77768E+00 -2.86554E+00 -1.27629E+00 -7.56109E-01
 -5.86467E-01 -5.86467E-01 -7.56109E-01 -1.27629E+00 -2.86554E+00 -3.77768E+00
 -5.44664E+00 -3.77768E+00 -1.60066E+00 -7.18292E-01 -5.45047E-01 -5.45047E-01
 -7.18292E-01 -1.60066E+00 -3.77768E+00 -5.44664E+00 -3.77768E+00 -2.86554E+00
 -1.27629E+00 -7.56109E-01 -5.86467E-01 -5.86467E-01 -7.56109E-01 -1.27629E+00
 -2.86554E+00 -3.77768E+00 -2.86554E+00 -2.11343E+00 -1.34454E+00 -9.31619E-01
 -6.63611E-01 -6.63611E-01 -9.31619E-01 -1.34454E+00 -2.11343E+00 -2.86554E+00
 -1.27629E+00 -1.34454E+00 -1.83665E+00 -1.43512E+00 -9.64196E-01 -9.64196E-01
 -1.43512E+00 -1.83665E+00 -1.34454E+00 -1.27629E+00 -7.56109E-01 -9.31619E-01
 -1.43512E+00 -1.54640E+00 -1.83678E+00 -1.83678E+00 -1.54640E+00 -1.43512E+00
 -9.31619E-01 -7.56109E-01 -5.86467E-01 -6.63611E-01 -9.64196E-01 -1.83678E+00
 -3.29766E+00 -3.29766E+00 -1.83678E+00 -9.64196E-01 -6.63611E-01 -5.86467E-01
 -5.86467E-01 -6.63611E-01 -9.64196E-01 -1.83678E+00 -3.29766E+00 -3.29766E+00
 -1.83678E+00 -9.64196E-01 -6.63611E-01 -5.86467E-01 -7.56109E-01 -9.31619E-01
 -1.43512E+00 -1.54640E+00 -1.83678E+00 -1.83678E+00 -1.54640E+00 -1.43512E+00
 -9.31619E-01 -7.56109E-01 -1.27629E+00 -1.34454E+00 -1.83665E+00 -1.43512E+00
 -9.64196E-01 -9.64196E-01 -1.43512E+00 -1.83665E+00 -1.34454E+00 -1.27629E+00
 -2.86554E+00 -2.11343E+00 -1.34454E+00 -9.31619E-01 -6.63611E-01 -6.63611E-01
 -9.31619E-01 -1.34454E+00 -2.11343E+00 -2.86554E+00 -3.77768E+00 -2.86554E+00
 -1.27629E+00 -7.56109E-01 -5.86467E-01 -5.86467E-01 -7.56109E-01 -1.27629E+00
 -2.86554E+00 -3.77768E+00 -1.60066E+00 -1.27629E+00 -1.02644E+00 -9.42004E-01
 -9.49663E-01 -9.49663E-01 -9.42004E-01 -1.02644E+00 -1.27629E+00 -1.60066E+00
 -1.27629E+00 -1.34454E+00 -1.83665E+00 -1.43512E+00 -9.64196E-01 -9.64196E-01
 -1.43512E+00 -1.83665E+00 -1.34454E+00 -1.27629E+00 -1.02644E+00 -1.83665E+00
 -7.12460E+00 -4.08877E+00 -1.06652E+00 -1.06652E+00 -4.08877E+00 -7.12460E+00
 -1.83665E+00 -1.02644E+00 -9.42004E-01 -1.43512E+00 -4.08877E+00 -2.60054E+00
 -1.17313E+00 -1.17313E+00 -2.60054E+00 -4.08877E+00 -1.43512E+00 -9.42004E-01
 -9.49663E-01 -9.64196E-01 -1.06652E+00 -1.17313E+00 -1.40968E+00 -1.40968E+00
 -1.17313E+00 -1.06652E+00 -9.64196E-01 -9.49663E-01 -9.49663E-01 -9.64196E-01
 -1.06652E+00 -1.17313E+00 -1.40968E+00 -1.40968E+00 -1.17313E+00 -1.06652E+00
 -9.64196E-01 -9.49663E-01 -9.42004E-01 -1.43512E+00 -4.08877E+00 -2.60054E+00
 -1.17313E+00 -1.17313E+00 -2.60054E+00 -4.08877E+00 -1.43512E+00 -9.42004E-01
 -1.02644E+00 -1.83665E+00 -7.12460E+00 -4.08877E+00 -1.06652E+00 -1.06652E+00
 -4.08877E+00 -7.12460E+00 -1.83665E+00 -1.02644E+00 -1.27629E+00 -1.34454E+00
 -1.83665E+00 -1.43512E+00 -9.64196E-01 -9.64196E-01 -1.43512E+00 -1.83665E+00
 -1.34454E+00 -1.27629E+00 -1.60066E+00 -1.27629E+00 -1.02644E+00 -9.42004E-01
 -9.49663E-01 -9.49663E-01 -9.42004E-01 -1.02644E+00 -1.27629E+00 -1.60066E+00
 -7.18292E-01 -7.56109E-01 -9.42004E-01 -1.41889E+00 -2.48270E+00 -2.48270E+00
 -1.41889E+00 -9.42004E-01 -7.56109E-01 -7.18292E-01 -7.56109E-01 -9.31619E-01
 -1.43512E+00 -1.54640E+00 -1.83678E+00 -1.83678E+00 -1.54640E+00 -1.43512E+00
 -9.31619E-01 -7.56109E-01 -9.42004E-01 -1.43512E+00 -4.08877E+00 -2.60054E+00
 -1.17313E+00 -1.17313E+00 -2.60054E+00 -4.08877E+00 -1.43512E+00 -9.42004E-01
 -1.41889E+00 -1.54640E+00 -2.60054E+00 -1.75489E+00 -8.65225E-01 -8.65225E-01
 -1.75489E+00 -2.60054E+00 -1.54640E+00 -1.41889E+00 -2.48270E+00 -1.83678E+00
 -1.17313E+00 -8.65225E-01 -7.08126E-01 -7.08126E-01 -8.65225E-01 -1.17313E+00
 -1.83678E+00 -2.48270E+00 -2.48270E+00 -1.83678E+00 -1.17313E+00 -8.65225E-01
 -7.08126E-01 -7.08125E-01 -8.65225E-01 -1.17313E+00 -1.83678E+00 -2.48270E+00
 -1.41889E+00 -1.54640E+00 -2.60054E+00 -1.75489E+00 -8.65225E-01 -8.65225E-01
 -1.75489E+00 -2.60054E+00 -1.54640E+00 -1.41889E+00 -9.42004E-01 -1.43512E+00
 -4.08877E+00 -2.60054E+00 -1.17313E+00 -1.17313E+00 -2.60054E+00 -4.08877E+00
 -1.43512E+00 -9.42004E-01 -7.56109E-01 -9.31619E-01 -1.43512E+00 -1.54640E+00
 -1.83678E+00 -1.83678E+00 -1.54640E+00 -1.43512E+00 -9.31619E-01 -7.56109E-01
 -7.18292E-01 -7.56109E-01 -9.42004E-01 -1.41889E+00 -2.48270E+00 -2.48270E+00
 -1.41889E+00 -9.42004E-01 -7.56109E-01 -7.18292E-01 -5.45047E-01 -5.86467E-01
 -9.49663E-01 -2.48270E+00 -4.29384E+00 -4.29384E+00 -2.48270E+00 -9.49663E-01
 -5.86467E-01 -5.45047E-01 -5.86467E-01 -6.63611E-01 -9.64196E-01 -1.83678E+00
 -3.29766E+00 -3.29766E+00 -1.83678E+00 -9.64196E-01 -6.63611E-01 -5.86467E-01
 -9.49663E-01 -9.64196E-01 -1.06652E+00 -1.17313E+00 -1.40968E+00 -1.40968E+00
 -1.17313E+00 -1.06652E+00 -9.64196E-01 -9.49663E-01 -2.48270E+00 -1.83678E+00
 -1.17313E+00 -8.65225E-01 -7.08126E-01 -7.08126E-01 -8.65225E-01 -1.17313E+00
 -1.83678E+00 -2.48270E+00 -4.29384E+00 -3.29766E+00 -1.40968E+00 -7.08126E-01
 -5.20340E-01 -5.20340E-01 -7.08125E-01 -1.40968E+00 -3.29766E+00 -4.29384E+00
 -4.29384E+00 -3.29766E+00 -1.40968E+00 -7.08126E-01 -5.20340E-01 -5.20340E-01
 -7.08125E-01 -1.40968E+00 -3.29766E+00 -4.29384E+00 -2.48270E+00 -1.83678E+00
 -1.17313E+00 -8.65225E-01 -7.08125E-01 -7.08125E-01 -8.65225E-01 -1.17313E+00
 -1.83678E+00 -2.48270E+00 -9.49663E-01 -9.64196E-01 -1.06652E+00 -1.17313E+00
 -1.40968E+00 -1.40968E+00 -1.17313E+00 -1.06652E+00 -9.64196E-01 -9.49663E-01
 -5.86467E-01 -6.63611E-01 -9.64196E-01 -1.83678E+00 -3.29766E+00 -3.29766E+00
 -1.83678E+00 -9.64196E-01 -6.63611E-01 -5.86467E-01 -5.45047E-01 -5.86467E-01
 -9.49663E-01 -2.48270E+00 -4.29384E+00 -4.29384E+00 -2.48270E+00 -9.49663E-01
 -5.86467E-01 -5.45047E-01 -5.45047E-01 -5.86467E-01 -9.49663E-01 -2.48270E+00
 -4.29384E+00 -4.29384E+00 -2.48270E+00 -9.49663E-01 -5.86467E-01 -5.45047E-01
 -5.86467E-01 -6.63611E-01 -9.64196E-01 -1.83678E+00 -3.29766E+00 -3.29766E+00
 -1.83678E+00 -9.64196E-01 -6.63611E-01 -5.86467E-01 -9.49663E-01 -9.64196E-01
 -1.06652E+00 -1.17313E+00 -1.40968E+00 -1.40968E+00 -1.17313E+00 -1.06652E+00
 -9.64196E-01 -9.49663E-01 -2.48270E+00 -1.83678E+00 -1.17313E+00 -8.65225E-01
 -7.08126E-01 -7.08125E-01 -8.65225E-01 -1.17313E+00 -1.83678E+00 -2.48270E+00
 -4.29384E+00 -3.29766E+00 -1.40968E+00 -7.08126E-01 -5.20340E-01 -5.20340E-01
 -7.08125E-01 -1.40968E+00 -3.29766E+00 -4.29384E+00 -4.29384E+00 -3.29766E+00
 -1.40968E+00 -7.08125E-01 -5.20340E-01 -5.20340E-01 -7.08125E-01 -1.40968E+00
 -3.29766E+00 -4.29384E+00 -2.48270E+00 -1.83678E+00 -1.17313E+00 -8.65225E-01
 -7.08125E-01 -7.08125E-01 -8.65224E-01 -1.17313E+00 -1.83678E+00 -2.48270E+00
 -9.49663E-01 -9.64196E-01 -1.06652E+00 -1.17313E+00 -1.40968E+00 -1.40968E+00
 -1.17313E+00 -1.06652E+00 -9.64196E-01 -9.49663E-01 -5.86467E-01 -6.63611E-01
 -9.64196E-01 -1.83678E+00 -3.29766E+00 -3.29766E+00 -1.83678E+00 -9.64196E-01
 -6.63611E-01 -5.86467E-01 -5.45047E-01 -5.86467E-01 -9.49663E-01 -2.48270E+00
 -4.29384E+00 -4.29384E+00 -2.48270E+00 -9.49663E-01 -5.86467E-01 -5.45047E-01
 -7.18292E-01 -7.56109E-01 -9.42004E-01 -1.41889E+00 -2.48270E+00 -2.48270E+00
 -1.41889E+00 -9.42004E-01 -7.56109E-01 -7.18292E-01 -7.56109E-01 -9.31619E-01
 -1.43512E+00 -1.54640E+00 -1.83678E+00 -1.83678E+00 -1.54640E+00 -1.43512E+00
 -9.31619E-01 -7.56109E-01 -9.42004E-01 -1.43512E+00 -4.08877E+00 -2.60054E+00
 -1.17313E+00 -1.17313E+00 -2.60054E+00 -4.08877E+00 -1.43512E+00 -9.42004E-01
 -1.41889E+00 -1.54640E+00 -2.60054E+00 -1.75489E+00 -8.65225E-01 -8.65225E-01
 -1.75489E+00 -2.60054E+00 -1.54640E+00 -1.41889E+00 -2.48270E+00 -1.83678E+00
 -1.17313E+00 -8.65225E-01 -7.08125E-01 -7.08125E-01 -8.65225E-01 -1.17313E+00
 -1.83678E+00 -2.48270E+00 -2.48270E+00 -1.83678E+00 -1.17313E+00 -8.65225E-01
 -7.08125E-01 -7.08125E-01 -8.65224E-01 -1.17313E+00 -1.83678E+00 -2.48270E+00
 -1.41889E+00 -1.54640E+00 -2.60054E+00 -1.75489E+00 -8.65225E-01 -8.65224E-01
 -1.75489E+00 -2.60054E+00 -1.54640E+00 -1.41889E+00 -9.42004E-01 -1.43512E+00
 -4.08877E+00 -2.60054E+00 -1.17313E+00 -1.17313E+00 -2.60054E+00 -4.08877E+00
 -1.43512E+00 -9.42004E-01 -7.56109E-01 -9.31619E-01 -1.43512E+00 -1.54640E+00
 -1.83678E+00 -1.83678E+00 -1.54640E+00 -1.43512E+00 -9.31619E-01 -7.56109E-01
 -7.18292E-01 -7.56109E-01 -9.42004E-01 -1.41889E+00 -2.48270E+00 -2.48270E+00
 -1.41889E+00 -9.42004E-01 -7.56109E-01 -7.18292E-01 -1.60066E+00 -1.27629E+00
 -1.02644E+00 -9.42004E-01 -9.49663E-01 -9.49663E-01 -9.42004E-01 -1.02644E+00
 -1.27629E+00 -1.60066E+00 -1.27629E+00 -1.34454E+00 -1.83665E+00 -1.43512E+00
 -9.64196E-01 -9.64196E-01 -1.43512E+00 -1.83665E+00 -1.34454E+00 -1.27629E+00
 -1.02644E+00 -1.83665E+00 -7.12460E+00 -4.08877E+00 -1.06652E+00 -1.06652E+00
 -4.08877E+00 -7.12460E+00 -1.83665E+00 -1.02644E+00 -9.42004E-01 -1.43512E+00
 -4.08877E+00 -2.60054E+00 -1.17313E+00 -1.17313E+00 -2.60054E+00 -4.08877E+00
 -1.43512E+00 -9.42004E-01 -9.49663E-01 -9.64196E-01 -1.06652E+00 -1.17313E+00
 -1.40968E+00 -1.40968E+00 -1.17313E+00 -1.06652E+00 -9.64196E-01 -9.49663E-01
 -9.49663E-01 -9.64196E-01 -1.06652E+00 -1.17313E+00 -1.40968E+00 -1.40968E+00
 -1.17313E+00 -1.06652E+00 -9.64196E-01 -9.49663E-01 -9.42004E-01 -1.43512E+00
 -4.08877E+00 -2.60054E+00 -1.17313E+00 -1.17313E+00 -2.60054E+00 -4.08877E+00
 -1.43512E+00 -9.42004E-01 -1.02644E+00 -1.83665E+00 -7.12460E+00 -4.08877E+00
 -1.06652E+00 -1.06652E+00 -4.08877E+00 -7.12460E+00 -1.83665E+00 -1.02644E+00
 -1.27629E+00 -1.34454E+00 -1.83665E+00 -1.43512E+00 -9.64196E-01 -9.64196E-01
 -1.43512E+00 -1.83665E+00 -1.34454E+00 -1.27629E+00 -1.60066E+00 -1.27629E+00
 -1.02644E+00 -9.42004E-01 -9.49663E-01 -9.49663E-01 -9.42004E-01 -1.02644E+00
 -1.27629E+00 -1.60066E+00 -3.77768E+00 -2.86554E+00 -1.27629E+00 -7.56109E-01
 -5.86467E-01 -5.86467E-01 -7.56109E-01 -1.27629E+00 -2.86554E+00 -3.77768E+00
 -2.86554E+00 -2.11343E+00 -1.34454E+00 -9.31619E-01 -6.63611E-01 -6.63611E-01
 -9.31619E-01 -1.34454E+00 -2.11343E+00 -2.86554E+00 -1.27629E+00 -1.34454E+00
 -1.83665E+00 -1.43512E+00 -9.64196E-01 -9.64196E-01 -1.43512E+00 -1.83665E+00
 -1.34454E+00 -1.27629E+00 -7.56109E-01 -9.31619E-01 -1.43512E+00 -1.54640E+00
 -1.83678E+00 -1.83678E+00 -1.54640E+00 -1.43512E+00 -9.31619E-01 -7.56109E-01
 -5.86467E-01 -6.63611E-01 -9.64196E-01 -1.83678E+00 -3.29766E+00 -3.29766E+00
 -1.83678E+00 -9.64196E-01 -6.63611E-01 -5.86467E-01 -5.86467E-01 -6.63611E-01
 -9.64196E-01 -1.83678E+00 -3.29766E+00 -3.29766E+00 -1.83678E+00 -9.64196E-01
 -6.63611E-01 -5.86467E-01 -7.56109E-01 -9.31619E-01 -1.43512E+00 -1.54640E+00
 -1.83678E+00 -1.83678E+00 -1.54640E+00 -1.43512E+00 -9.31619E-01 -7.56109E-01
 -1.27629E+00 -1.34454E+00 -1.83665E+00 -1.43512E+00 -9.64196E-01 -9.64196E-01
 -1.43512E+00 -1.83665E+00 -1.34454E+00 -1.27629E+00 -2.86554E+00 -2.11343E+00
 -1.34454E+00 -9.31619E-01 -6.63611E-01 -6.63611E-01 -9.31619E-01 -1.34454E+00
 -2.11343E+00 -2.86554E+00 -3.77768E+00 -2.86554E+00 -1.27629E+00 -7.56109E-01
 -5.86467E-01 -5.86467E-01 -7.56109E-01 -1.27629E+00 -2.86554E+00 -3.77768E+00
 -5.44664E+00 -3.77768E+00 -1.60066E+00 -7.18292E-01 -5.45047E-01 -5.45047E-01
 -7.18292E-01 -1.60066E+00 -3.77768E+00 -5.44664E+00 -3.77768E+00 -2.86554E+00
 -1.27629E+00 -7.56109E-01 -5.86467E-01 -5.86467E-01 -7.56109E-01 -1.27629E+00
 -2.86554E+00 -3.77768E+00 -1.60066E+00 -1.27629E+00 -1.02644E+00 -9.42004E-01
 -9.49663E-01 -9.49663E-01 -9.42004E-01 -1.02644E+00 -1.27629E+00 -1.60066E+00
 -7.18292E-01 -7.56109E-01 -9.42004E-01 -1.41889E+00 -2.48270E+00 -2.48270E+00
 -1.41889E+00 -9.42004E-01 -7.56109E-01 -7.18292E-01 -5.45047E-01 -5.86467E-01
 -9.49663E-01 -2.48270E+00 -4.29384E+00 -4.29384E+00 -2.48270E+00 -9.49663E-01
 -5.86467E-01 -5.45047E-01 -5.45047E-01 -5.86467E-01 -9.49663E-01 -2.48270E+00
 -4.29384E+00 -4.29384E+00 -2.48270E+00 -9.49663E-01 -5.86467E-01 -5.45047E-01
 -7.18292E-01 -7.56109E-01 -9.42004E-01 -1.41889E+00 -2.48270E+00 -2.48270E+00
 -1.41889E+00 -9.42004E-01 -7.56109E-01 -7.18292E-01 -1.60066E+00 -1.27629E+00
 -1.02644E+00 -9.42004E-01 -9.49663E-01 -9.49663E-01 -9.42004E-01 -1.02644E+00
 -1.27629E+00 -1.60066E+00 -3.77768E+00 -2.86554E+00 -1.27629E+00 -7.56109E-01
 -5.86467E-01 -5.86467E-01 -7.56109E-01 -1.27629E+00 -2.86554E+00 -3.77768E+00
 -5.44664E+00 -3.77768E+00 -1.60066E+00 -7.18292E-01 -5.45047E-01 -5.45047E-01
 -7.18292E-01 -1.60066E+00 -3.77768E+00 -5.44664E+00
 END_DATAGRID_3D
 BEGIN_DATAGRID_3D_RHO:spin_2
    10    10    10
  0.0000000E+00  0.0000000E+00  0.0000000E+00
  5.1772130E+00  0.0000000E+00  0.0000000E+00
  0.0000000E+00  5.1772130E+00  0.0000000E+00
  0.0000000E+00  0.0000000E+00  5.1772130E+00
 -5.44664E+00 -3.77768E+00 -1.60066E+00 -7.18292E-01 -5.45047E-01 -5.45047E-01
 -7.18292E-01 -1.60066E+00 -3.77768E+00 -5.44664E+00 -3.77768E+00 -2.86554E+00
 -1.27629E+00 -7.56109E-01 -5.86467E-01 -5.86467E-01 -7.56109E-01 -1.27629E+00
 -2.86554E+00 -3.77768E+00 -1.60066E+00 -1.27629E+00 -1.02644E+00 -9.42004E-01
 -9.49663E-01 -9.49663E-01 -9.42004E-01 -1.02644E+00 -1.27629E+00 -1.60066E+00
 -7.18292E-01 -7.56109E-01 -9.42004E-01 -1.41889E+00 -2.48270E+00 -2.48270E+00
 -1.41889E+00 -9.42004E-01 -7.56109E-01 -7.18292E-01 -5.45047E-01 -5.86467E-01
 -9.49663E-01 -2.48270E+00 -4.29384E+00 -4.29384E+00 -2.48270E+00 -9.49663E-01
 -5.86467E-01 -5.45047E-01 -5.45047E-01 -5.86467E-01 -9.49663E-01 -2.48270E+00
 -4.29384E+00 -4.29384E+00 -2.48270E+00 -9.49663E-01 -5.86467E-01 -5.45047E-01
 -7.18292E-01 -7.56109E-01 -9.42004E-01 -1.41889E+00 -2.48270E+00 -2.48270E+00
 -1.41889E+00 -9.42004E-01 -7.56109E-01 -7.18292E-01 -1.60066E+00 -1.27629E+00
 -1.02644E+00 -9.42004E-01 -9.49663E-01 -9.49663E-01 -9.42004E-01 -1.02644E+00
 -1.27629E+00 -1.60066E+00 -3.77768E+00 -2.86554E+00 -1.27629E+00 -7.56109E-01
 -5.86467E-01 -5.86467E-01 -7.56109E-01 -1.27629E+00 -2.86554E+00 -3.77768E+00
 -5.44664E+00 -3.77768E+00 -1.60066E+00 -7.18292E-01 -5.45047E-01 -5.45047E-01
 -7.18292E-01 -1.60066E+00 -3.77768E+00 -5.44664E+00 -3.77768E+00 -2.86554E+00
 -1.27629E+00 -7.56109E-01 -5.86467E-01 -5.86467E-01 -7.56109E-01 -1.27629E+00
 -2.86554E+00 -3.77768E+00 -2.86554E+00 -2.11343E+00 -1.34454E+00 -9.31619E-01
 -6.63611E-01 -6.63611E-01 -9.31619E-01 -1.34454E+00 -2.11343E+00 -2.86554E+00
 -1.27629E+00 -1.34454E+00 -1.83665E+00 -1.43512E+00 -9.64196E-01 -9.64196E-01
 -1.43512E+00 -1.83665E+00 -1.34454E+00 -1.27629E+00 -7.56109E-01 -9.31619E-01
 -1.43512E+00 -1.54640E+00 -1.83678E+00 -1.83678E+00 -1.54640E+00 -1.43512E+00
 -9.31619E-01 -7.56109E-01 -5.86467E-01 -6.63611E-01 -9.64196E-01 -1.83678E+00
 -3.29766E+00 -3.29766E+00 -1.83678E+00 -9.64196E-01 -6.63611E-01 -5.86467E-01
 -5.86467E-01 -6.63611E-01 -9.64196E-01 -1.83678E+00 -3.29766E+00 -3.29766E+00
 -1.83678E+00 -9.64196E-01 -6.63611E-01 -5.86467E-01 -7.56109E-01 -9.31619E-01
 -1.43512E+00 -1.54640E+00 -1.83678E+00 -1.83678E+00 -1.54640E+00 -1.43512E+00
 -9.31619E-01 -7.56109E-01 -1.27629E+00 -1.34454E+00 -1.83665E+00 -1.43512E+00
 -9.64196E-01 -9.64196E-01 -1.43512E+00 -1.83665E+00 -1.34454E+00 -1.27629E+00
 -2.86554E+00 -2.11343E+00 -1.34454E+00 -9.31619E-01 -6.63611E-01 -6.63611E-01
 -9.31619E-01 -1.34454E+00 -2.11343E+00 -2.86554E+00 -3.77768E+00 -2.86554E+00
 -1.27629E+00 -7.56109E-01 -5.86467E-01 -5.86467E-01 -7.56109E-01 -1.27629E+00
 -2.86554E+00 -3.77768E+00 -1.60066E+00 -1.27629E+00 -1.02644E+00 -9.42004E-01
 -9.49663E-01 -9.49663E-01 -9.42004E-01 -1.02644E+00 -1.27629E+00 -1.60066E+00
 -1.27629E+00 -1.34454E+00 -1.83665E+00 -1.43512E+00 -9.64196E-01 -9.64196E-01
 -1.43512E+00 -1.83665E+00 -1.34454E+00 -1.27629E+00 -1.02644E+00 -1.83665E+00
 -7.12460E+00 -4.08877E+00 -1.06652E+00 -1.06652E+00 -4.08877E+00 -7.12460E+00
 -1.83665E+00 -1.02644E+00 -9.42004E-01 -1.43512E+00 -4.08877E+00 -2.60054E+00
 -1.17313E+00 -1.17313E+00 -2.60054E+00 -4.08877E+00 -1.43512E+00 -9.42004E-01
 -9.49663E-01 -9.64196E-01 -1.06652E+00 -1.17313E+00 -1.40968E+00 -1.40968E+00
 -1.17313E+00 -1.06652E+00 -9.64196E-01 -9.49663E-01 -9.49663E-01 -9.64196E-01
 -1.06652E+00 -1.17313E+00 -1.40968E+00 -1.40968E+00 -1.17313E+00 -1.06652E+00
 -9.64196E-01 -9.49663E-01 -9.42004E-01 -1.43512E+00 -4.08877E+00 -2.60054E+00
 -1.17313E+00 -1.17313E+00 -2.60054E+00 -4.08877E+00 -1.43512E+00 -9.42004E-01
 -1.02644E+00 -1.83665E+00 -7.12460E+00 -4.08877E+00 -1.06652E+00 -1.06652E+00
 -4.08877E+00 -7.12460E+00 -1.83665E+00 -1.02644E+00 -1.27629E+00 -1.34454E+00
 -1.83665E+00 -1.43512E+00 -9.64196E-01 -9.64196E-01 -1.43512E+00 -1.83665E+00
 -1.34454E+00 -1.27629E+00 -1.60066E+00 -1.27629E+00 -1.02644E+00 -9.42004E-01
 -9.49663E-01 -9.49663E-01 -9.42004E-01 -1.02644E+00 -1.27629E+00 -1.60066E+00
 -7.18292E-01 -7.56109E-01 -9.42004E-01 -1.41889E+00 -2.48270E+00 -2.48270E+00
 -1.41889E+00 -9.42004E-01 -7.56109E-01 -7.18292E-01 -7.56109E-01 -9.31619E-01
 -1.43512E+00 -1.54640E+00 -1.83678E+00 -1.83678E+00 -1.54640E+00 -1.43512E+00
 -9.31619E-01 -7.56109E-01 -9.42004E-01 -1.43512E+00 -4.08877E+00 -2.60054E+00
 -1.17313E+00 -1.17313E+00 -2.60054E+00 -4.08877E+00 -1.43512E+00 -9.42004E-01
 -1.41889E+00 -1.54640E+00 -2.60054E+00 -1.75489E+00 -8.65225E-01 -8.65225E-01
 -1.75489E+00 -2.60054E+00 -1.54640E+00 -1.41889E+00 -2.48270E+00 -1.83678E+00
 -1.17313E+00 -8.65225E-01 -7.08126E-01 -7.08126E-01 -8.65225E-01 -1.17313E+00
 -1.83678E+00 -2.48270E+00 -2.48270E+00 -1.83678E+00 -1.17313E+00 -8.65225E-01
 -7.08126E-01 -7.08126E-01 -8.65225E-01 -1.17313E+00 -1.83678E+00 -2.48270E+00
 -1.41889E+00 -1.54640E+00 -2.60054E+00 -1.75489E+00 -8.65225E-01 -8.65225E-01
 -1.75489E+00 -2.60054E+00 -1.54640E+00 -1.41889E+00 -9.42004E-01 -1.43512E+00
 -4.08877E+00 -2.60054E+00 -1.17313E+00 -1.17313E+00 -2.60054E+00 -4.08877E+00
 -1.43512E+00 -9.42004E-01 -7.56109E-01 -9.31619E-01 -1.43512E+00 -1.54640E+00
 -1.83678E+00 -1.83678E+00 -1.54640E+00 -1.43512E+00 -9.31619E-01 -7.56109E-01
 -7.18292E-01 -7.56109E-01 -9.42004E-01 -1.41889E+00 -2.48270E+00 -2.48270E+00
 -1.41889E+00 -9.42004E-01 -7.56109E-01 -7.18292E-01 -5.45047E-01 -5.86467E-01
 -9.49663E-01 -2.48270E+00 -4.29384E+00 -4.29384E+00 -2.48270E+00 -9.49663E-01
 -5.86467E-01 -5.45047E-01 -5.86467E-01 -6.63611E-01 -9.64196E-01 -1.83678E+00
 -3.29766E+00 -3.29766E+00 -1.83678E+00 -9.64196E-01 -6.63611E-01 -5.86467E-01
 -9.49663E-01 -9.64196E-01 -1.06652E+00 -1.17313E+00 -1.40968E+00 -1.40968E+00
 -1.17313E+00 -1.06652E+00 -9.64196E-01 -9.49663E-01 -2.48270E+00 -1.83678E+00
 -1.17313E+00 -8.65225E-01 -7.08126E-01 -7.08126E-01 -8.65225E-01 -1.17313E+00
 -1.83678E+00 -2.48270E+00 -4.29384E+00 -3.29766E+00 -1.40968E+00 -7.08126E-01
 -5.20340E-01 -5.20340E-01 -7.08126E-01 -1.40968E+00 -3.29766E+00 -4.29384E+00
 -4.29384E+00 -3.29766E+00 -1.40968E+00 -7.08126E-01 -5.20340E-01 -5.20340E-01
 -7.08126E-01 -1.40968E+00 -3.29766E+00 -4.29384E+00 -2.48270E+00 -1.83678E+00
 -1.17313E+00 -8.65225E-01 -7.08126E-01 -7.08125E-01 -8.65225E-01 -1.17313E+00
 -1.83678E+00 -2.48270E+00 -9.49663E-01 -9.64196E-01 -1.06652E+00 -1.17313E+00
 -1.40968E+00 -1.40968E+00 -1.17313E+00 -1.06652E+00 -9.64196E-01 -9.49663E-01
 -5.86467E-01 -6.63611E-01 -9.64196E-01 -1.83678E+00 -3.29766E+00 -3.29766E+00
 -1.83678E+00 -9.64196E-01 -6.63611E-01 -5.86467E-01 -5.45047E-01 -5.86467E-01
 -9.49663E-01 -2.48270E+00 -4.29384E+00 -4.29384E+00 -2.48270E+00 -9.49663E-01
 -5.86467E-01 -5.45047E-01 -5.45047E-01 -5.86467E-01 -9.49663E-01 -2.48270E+00
 -4.29384E+00 -4.29384E+00 -2.48270E+00 -9.49663E-01 -5.86467E-01 -5.45047E-01
 -5.86467E-01 -6.63611E-01 -9.64196E-01 -1.83678E+00 -3.29766E+00 -3.29766E+00
 -1.83678E+00 -9.64196E-01 -6.63611E-01 -5.86467E-01 -9.49663E-01 -9.64196E-01
 -1.06652E+00 -1.17313E+00 -1.40968E+00 -1.40968E+00 -1.17313E+00 -1.06652E+00
 -9.64196E-01 -9.49663E-01 -2.48270E+00 -1.83678E+00 -1.17313E+00 -8.65225E-01
 -7.08126E-01 -7.08126E-01 -8.65225E-01 -1.17313E+00 -1.83678E+00 -2.48270E+00
 -4.29384E+00 -3.29766E+00 -1.40968E+00 -7.08126E-01 -5.20340E-01 -5.20340E-01
 -7.08126E-01 -1.40968E+00 -3.29766E+00 -4.29384E+00 -4.29384E+00 -3.29766E+00
 -1.40968E+00 -7.08126E-01 -5.20340E-01 -5.20340E-01 -7.08126E-01 -1.40968E+00
 -3.29766E+00 -4.29384E+00 -2.48270E+00 -1.83678E+00 -1.17313E+00 -8.65225E-01
 -7.08125E-01 -7.08125E-01 -8.65225E-01 -1.17313E+00 -1.83678E+00 -2.48270E+00
 -9.49663E-01 -9.64196E-01 -1.06652E+00 -1.17313E+00 -1.40968E+00 -1.40968E+00
 -1.17313E+00 -1.06652E+00 -9.64196E-01 -9.49663E-01 -5.86467E-01 -6.63611E-01
 -9.64196E-01 -1.83678E+00 -3.29766E+00 -3.29766E+00 -1.83678E+00 -9.64196E-01
 -6.63611E-01 -5.86467E-01 -5.45047E-01 -5.86467E-01 -9.49663E-01 -2.48270E+00
 -4.29384E+00 -4.29384E+00 -2.48270E+00 -9.49663E-01 -5.86467E-01 -5.45047E-01
 -7.18292E-01 -7.56109E-01 -9.42004E-01 -1.41889E+00 -2.48270E+00 -2.48270E+00
 -1.41889E+00 -9.42004E-01 -7.56109E-01 -7.18292E-01 -7.56109E-01 -9.31619E-01
 -1.43512E+00 -1.54640E+00 -1.83678E+00 -1.83678E+00 -1.54640E+00 -1.43512E+00
 -9.31619E-01 -7.56109E-01 -9.42004E-01 -1.43512E+00 -4.08877E+00 -2.60054E+00
 -1.17313E+00 -1.17313E+00 -2.60054E+00 -4.08877E+00 -1.43512E+00 -9.42004E-01
 -1.41889E+00 -1.54640E+00 -2.60054E+00 -1.75489E+00 -8.65225E-01 -8.65225E-01
 -1.75489E+00 -2.60054E+00 -1.54640E+00 -1.41889E+00 -2.48270E+00 -1.83678E+00
 -1.17313E+00 -8.65225E-01 -7.08126E-01 -7.08126E-01 -8.65225E-01 -1.17313E+00
 -1.83678E+00 -2.48270E+00 -2.48270E+00 -1.83678E+00 -1.17313E+00 -8.65225E-01
 -7.08126E-01 -7.08126E-01 -8.65225E-01 -1.17313E+00 -1.83678E+00 -2.48270E+00
 -1.41889E+00 -1.54640E+00 -2.60054E+00 -1.75489E+00 -8.65225E-01 -8.65225E-01
 -1.75489E+00 -2.60054E+00 -1.54640E+00 -1.41889E+00 -9.42004E-01 -1.43512E+00
 -4.08877E+00 -2.60054E+00 -1.17313E+00 -1.17313E+00 -2.60054E+00 -4.08877E+00
 -1.43512E+00 -9.42004E-01 -7.56109E-01 -9.31619E-01 -1.43512E+00 -1.54640E+00
 -1.83678E+00 -1.83678E+00 -1.54640E+00 -1.43512E+00 -9.31619E-01 -7.56109E-01
 -7.18292E-01 -7.56109E-01 -9.42004E-01 -1.41889E+00 -2.48270E+00 -2.48270E+00
 -1.41889E+00 -9.42004E-01 -7.56109E-01 -7.18292E-01 -1.60066E+00 -1.27629E+00
 -1.02644E+00 -9.42004E-01 -9.49663E-01 -9.49663E-01 -9.42004E-01 -1.02644E+00
 -1.27629E+00 -1.60066E+00 -1.27629E+00 -1.34454E+00 -1.83665E+00 -1.43512E+00
 -9.64196E-01 -9.64196E-01 -1.43512E+00 -1.83665E+00 -1.34454E+00 -1.27629E+00
 -1.02644E+00 -1.83665E+00 -7.12460E+00 -4.08877E+00 -1.06652E+00 -1.06652E+00
 -4.08877E+00 -7.12460E+00 -1.83665E+00 -1.02644E+00 -9.42004E-01 -1.43512E+00
 -4.08877E+00 -2.60054E+00 -1.17313E+00 -1.17313E+00 -2.60054E+00 -4.08877E+00
 -1.43512E+00 -9.42004E-01 -9.49663E-01 -9.64196E-01 -1.06652E+00 -1.17313E+00
 -1.40968E+00 -1.40968E+00 -1.17313E+00 -1.06652E+00 -9.64196E-01 -9.49663E-01
 -9.49663E-01 -9.64196E-01 -1.06652E+00 -1.17313E+00 -1.40968E+00 -1.40968E+00
 -1.17313E+00 -1.06652E+00 -9.64196E-01 -9.49663E-01 -9.42004E-01 -1.43512E+00
 -4.08877E+00 -2.60054E+00 -1.17313E+00 -1.17313E+00 -2.60054E+00 -4.08877E+00
 -1.43512E+00 -9.42004E-01 -1.02644E+00 -1.83665E+00 -7.12460E+00 -4.08877E+00
 -1.06652E+00 -1.06652E+00 -4.08877E+00 -7.12460E+00 -1.83665E+00 -1.02644E+00
 -1.27629E+00 -1.34454E+00 -1.83665E+00 -1.43512E+00 -9.64196E-01 -9.64196E-01
 -1.43512E+00 -1.83665E+00 -1.34454E+00 -1.27629E+00 -1.60066E+00 -1.27629E+00
 -1.02644E+00 -9.42004E-01 -9.49663E-01 -9.49663E-01 -9.42004E-01 -1.02644E+00
 -1.27629E+00 -1.60066E+00 -3.77768E+00 -2.86554E+00 -1.27629E+00 -7.56109E-01
 -5.86467E-01 -5.86467E-01 -7.56109E-01 -1.27629E+00 -2.86554E+00 -3.77768E+00
 -2.86554E+00 -2.11343E+00 -1.34454E+00 -9.31619E-01 -6.63611E-01 -6.63611E-01
 -9.31619E-01 -1.34454E+00 -2.11343E+00 -2.86554E+00 -1.27629E+00 -1.34454E+00
 -1.83665E+00 -1.43512E+00 -9.64196E-01 -9.64196E-01 -1.43512E+00 -1.83665E+00
 -1.34454E+00 -1.27629E+00 -7.56109E-01 -9.31619E-01 -1.43512E+00 -1.54640E+00
 -1.83678E+00 -1.83678E+00 -1.54640E+00 -1.43512E+00 -9.31619E-01 -7.56109E-01
 -5.86467E-01 -6.63611E-01 -9.64196E-01 -1.83678E+00 -3.29766E+00 -3.29766E+00
 -1.83678E+00 -9.64196E-01 -6.63611E-01 -5.86467E-01 -5.86467E-01 -6.63611E-01
 -9.64196E-01 -1.83678E+00 -3.29766E+00 -3.29766E+00 -1.83678E+00 -9.64196E-01
 -6.63611E-01 -5.86467E-01 -7.56109E-01 -9.31619E-01 -1.43512E+00 -1.54640E+00
 -1.83678E+00 -1.83678E+00 -1.54640E+00 -1.43512E+00 -9.31619E-01 -7.56109E-01
 -1.27629E+00 -1.34454E+00 -1.83665E+00 -1.43512E+00 -9.64196E-01 -9.64196E-01
 -1.43512E+00 -1.83665E+00 -1.34454E+00 -1.27629E+00 -2.86554E+00 -2.11343E+00
 -1.34454E+00 -9.31619E-01 -6.63611E-01 -6.63611E-01 -9.31619E-01 -1.34454E+00
 -2.11343E+00 -2.86554E+00 -3.77768E+00 -2.86554E+00 -1.27629E+00 -7.56109E-01
 -5.86467E-01 -5.86467E-01 -7.56109E-01 -1.27629E+00 -2.86554E+00 -3.77768E+00
 -5.44664E+00 -3.77768E+00 -1.60066E+00 -7.18292E-01 -5.45047E-01 -5.45047E-01
 -7.18292E-01 -1.60066E+00 -3.77768E+00 -5.44664E+00 -3.77768E+00 -2.86554E+00
 -1.27629E+00 -7.56109E-01 -5.86467E-01 -5.86467E-01 -7.56109E-01 -1.27629E+00
 -2.86554E+00 -3.77768E+00 -1.60066E+00 -1.27629E+00 -1.02644E+00 -9.42004E-01
 -9.49663E-01 -9.49663E-01 -9.42004E-01 -1.02644E+00 -1.27629E+00 -1.60066E+00
 -7.18292E-01 -7.56109E-01 -9.42004E-01 -1.41889E+00 -2.48270E+00 -2.48270E+00
 -1.41889E+00 -9.42004E-01 -7.56109E-01 -7.18292E-01 -5.45047E-01 -5.86467E-01
 -9.49663E-01 -2.48270E+00 -4.29384E+00 -4.29384E+00 -2.48270E+00 -9.49663E-01
 -5.86467E-01 -5.45047E-01 -5.45047E-01 -5.86467E-01 -9.49663E-01 -2.48270E+00
 -4.29384E+00 -4.29384E+00 -2.48270E+00 -9.49663E-01 -5.86467E-01 -5.45047E-01
 -7.18292E-01 -7.56109E-01 -9.42004E-01 -1.41889E+00 -2.48270E+00 -2.48270E+00
 -1.41889E+00 -9.42004E-01 -7.56109E-01 -7.18292E-01 -1.60066E+00 -1.27629E+00
 -1.02644E+00 -9.42004E-01 -9.49663E-01 -9.49663E-01 -9.42004E-01 -1.02644E+00
 -1.27629E+00 -1.60066E+00 -3.77768E+00 -2.86554E+00 -1.27629E+00 -7.56109E-01
 -5.86467E-01 -5.86467E-01 -7.56109E-01 -1.27629E+00 -2.86554E+00 -3.77768E+00
 -5.44664E+00 -3.77768E+00 -1.60066E+00 -7.18292E-01 -5.45047E-01 -5.45047E-01
 -7.18292E-01 -1.60066E+00 -3.77768E+00 -5.44664E+00
 END_DATAGRID_3D
END_BLOCK_DATAGRID_3D
